/*--------------------------------*- C++ -*----------------------------------*\
| =========                 |                                                 |
| \\      /  F ield         | OpenFOAM: The Open Source CFD Toolbox           |
|  \\    /   O peration     | Version:  2212                                  |
|   \\  /    A nd           | Website:  www.openfoam.com                      |
|    \\/     M anipulation  |                                                 |
\*---------------------------------------------------------------------------*/
FoamFile
{
    version     2.0;
    format      ascii;
    arch        "LSB;label=32;scalar=64";
    class       volScalarField;
    location    "1000";
    object      ddt0(k);
}
// * * * * * * * * * * * * * * * * * * * * * * * * * * * * * * * * * * * * * //

dimensions      [0 2 -3 0 0 0 0];

internalField   nonuniform List<scalar> 
162063
(
0.00773565954
0.002963874992
-0.0004868202326
-0.002750103176
-0.004006978544
-0.004479472852
-0.004438903926
-0.004051081293
-0.003490943165
-0.002885613865
-0.002297789562
-0.001759021726
-0.001246917708
-0.0006907127806
0.000238986498
0.001756642886
0.00376409087
0.00558945503
0.006659358212
0.006823313641
0.006147060536
0.004938661889
0.003499860405
0.002365634011
0.001549985383
0.001138889535
0.0008413326814
0.001489122051
0.002843479356
0.005076837143
0.008529759667
0.01322711001
0.01933608089
0.02605830744
0.03321555424
0.03994491678
0.04597251149
0.05088552633
0.05516308742
0.05887513506
0.06149224869
0.06315365597
0.0642032993
0.06445726308
0.0643906619
0.06402962537
0.06340128755
0.06254250116
0.06119046454
0.05951901055
0.05718611767
0.0542398841
0.05084874832
0.04672970387
0.04229072427
0.0374340861
0.03178960003
0.02532975154
0.01810221474
0.01076166888
0.003610225585
-0.003572824098
-0.01100148494
-0.018816688
-0.02677894878
-0.03492637966
-0.04334617747
-0.05193665123
-0.06068995223
-0.06912884466
-0.07740333464
-0.08569663688
-0.09377325995
-0.1016490347
-0.1093211616
-0.1170412617
-0.1251427003
-0.133962043
-0.1436749947
-0.153554165
-0.1623062698
-0.1703824481
-0.1772397808
-0.1830791517
-0.1875880314
-0.1885391391
-0.1859544303
-0.1819974283
-0.1796124908
-0.1804293931
-0.1786105467
-0.1737708402
-0.1677583509
-0.1631738899
-0.1583587229
-0.150206857
-0.1423798353
-0.1366544026
-0.127995602
-0.1178850722
-0.1097792761
-0.0994918697
-0.08958015868
-0.07999020547
-0.06968628699
-0.06042545209
-0.05109287437
-0.04286917572
-0.03504831887
-0.02828061804
-0.02250736124
-0.01765987052
-0.01357186947
-0.01033101394
-0.007687726767
-0.005623624071
-0.004031430565
-0.002816379127
-0.001912000608
-0.00126206184
-0.0007995257688
-0.0004592988422
-0.0002349636136
-9.371810084e-05
3.416922055e-05
0.0001327205782
0.0002085559273
0.0002884756854
0.0003863696849
0.0004955906619
0.000616001119
0.0007589919449
0.0009340034845
0.001157078383
0.001411328941
0.001723616934
0.002078795344
0.002495120466
0.002961841208
0.003467986532
0.004018212542
0.004599883076
0.005181414778
0.005715005264
0.006218717103
0.006657994989
0.006964887607
0.007117978395
0.007126355396
0.007223268183
0.007258579478
0.007204700264
0.007109852323
0.006928450634
0.006686694201
0.00644546112
0.006207608098
0.005959830746
0.005721450439
0.005477333653
0.00523835726
0.005014418343
0.004796627352
0.00460477948
0.004431420854
0.004265695782
0.004118793302
0.004000436606
0.003873265176
0.003782367215
0.003645765235
0.003576257594
0.003454070603
0.003371879983
0.003276930099
0.003199328429
0.003126259663
0.003045576692
0.002977029745
0.002906900209
0.002839554242
0.002775651385
0.002705569889
0.002641808389
0.002572013955
0.002505377353
0.002436459707
0.002366929313
0.002305003105
0.002248607029
0.002198771088
0.002146761833
0.002096241536
0.002050180943
0.002012612631
0.001982506956
0.001946984522
0.001906434661
0.001862771679
0.001825054096
0.0017844102
0.001748197073
0.001717431441
0.00169033486
0.0016640492
0.001633760011
0.001599891723
0.001558187466
0.001511255446
0.001466517051
0.001427001098
0.001385882906
0.001334333619
0.001278722365
0.001232242248
0.001199390123
0.00117671678
0.001157397237
0.001129082733
0.001102701159
0.00109567663
0.001095497793
0.001077195196
0.001042927755
0.001014099355
0.001007936324
0.001017850522
0.001001998962
0.0009624569045
0.0009386001933
0.0009048732362
0.0008430869038
0.0008227905826
0.0008431396143
0.0008284910574
0.0006352198573
0.0008129458135
0.0009078722274
0.0009466933983
0.0008977395437
0.0004116972671
0.0006191679466
0.0005331129089
0.0004481512105
0.0003961351609
0.0003439837753
0.0003020999555
0.0002545897303
0.0002151419817
0.0002036410182
0.0001960389074
0.0001896392654
0.0001894632756
0.000199055148
0.0002009712875
0.00018078923
0.0001698501862
0.0001807269058
0.0001802752818
0.0001562800625
0.0001329714548
0.0001098298837
7.980448523e-05
4.128551035e-05
-1.192397106e-05
-6.732092816e-05
-0.0001255857944
-0.0001855283967
-0.0002388862542
-0.0002937094491
-0.0003497394965
-0.0004031687391
-0.0004527930872
-0.0004962404223
-0.0005410881096
-0.000596245362
-0.0006537746817
-0.0007157174635
-0.0007702236064
-0.0008264173333
-0.0008695464651
-0.000911383101
-0.0009576849562
-0.001001617882
-0.001041800996
-0.001091833236
-0.001152911211
-0.001216870756
-0.001276915229
-0.001343760724
-0.00140978442
-0.001481553634
-0.001552393415
-0.001626864089
-0.001700300234
-0.001772767871
-0.001834723296
-0.001903892077
-0.001977442012
-0.002057172545
-0.002139426511
-0.002216957406
-0.002301752384
-0.002382472265
-0.002471120254
-0.002597080952
-0.002754856429
-0.002673435775
-0.002735592928
-0.00282788304
-0.002901652278
-0.003010763376
-0.003015384789
-0.003157237453
-0.003194251639
-0.003340855053
-0.003388174585
-0.003513714384
-0.003634670385
-0.003761167167
-0.003910556605
-0.004093681624
-0.004279523112
-0.004510199257
-0.004702557442
-0.00503278568
-0.005386671337
-0.005791671644
-0.006277094581
-0.006779606012
-0.007439748249
-0.008097302592
-0.008880160128
-0.009555291317
-0.01032842922
-0.01088904078
-0.01129967074
-0.01128337699
-0.01085091217
-0.009741595628
-0.008451690999
-0.005186254749
-0.002909474812
-0.0001522524108
0.002631305239
0.003865724458
0.004134783188
0.002102484223
-0.0002661592405
-0.002398223058
-0.003457656794
-0.003666195435
-0.002918987381
-0.001820693338
-0.0005348972551
0.0006511858004
0.001674557203
0.002608847275
0.003547860266
0.004621936813
0.005933426671
0.007587394428
0.009757875611
0.01256351215
0.01607658165
0.02043794458
0.02573341428
0.0319856934
0.03913718695
0.04690375208
0.05496214756
0.06290147579
0.07034641326
0.07787514476
0.08459133133
0.0887946062
0.09453024422
0.09698572865
0.09744620044
0.09877427081
0.09937495993
0.09844379915
0.09619491224
0.09365964441
0.0906282299
0.08637963064
0.08083036659
0.07467519506
0.0680267744
0.06078207727
0.05288665558
0.04445355808
0.0363938538
0.02834661975
0.02067665874
0.0137357668
0.004035065133
0.001210894154
-0.0006511093474
-0.001789542616
-0.00236153744
-0.002529416666
-0.00248243836
-0.002260989942
-0.00195654948
-0.001630156409
-0.001317456411
-0.001032142196
-0.0007683741668
-0.0004557360984
1.90691947e-05
0.0007938519912
0.001812867411
0.002755279696
0.00334903672
0.003508702899
0.003229108101
0.002651952645
0.001888306561
0.001240277521
0.0008639677088
0.0007892414732
0.000424158617
0.0009235783553
0.001474019264
0.00215839917
0.003794882853
0.005878527213
0.009304565937
0.01294558771
0.01764260121
0.02240865769
0.02683360859
0.03119892732
0.03504547085
0.03855813379
0.0415678184
0.04360670868
0.0454419961
0.04644645282
0.04706268599
0.0475511697
0.04765053807
0.04766055466
0.04714100668
0.046595378
0.04532515948
0.04327966169
0.04126780059
0.03826822027
0.03513966215
0.03178165781
0.02709856139
0.02240368749
0.01659049583
0.01095119703
0.005557609785
-0.0003727677349
-0.006209586257
-0.01260100797
-0.0189061374
-0.02533482215
-0.03266172249
-0.03941365808
-0.04681612029
-0.05389607549
-0.06066858979
-0.06799146577
-0.07422181715
-0.08125801767
-0.08734357534
-0.09399813577
-0.1009940301
-0.107837188
-0.1161766752
-0.1235100014
-0.1311648895
-0.1373362943
-0.1430653142
-0.1478002167
-0.1508804225
-0.1509564625
-0.1471281104
-0.1425475346
-0.1405531333
-0.141844589
-0.1395302406
-0.1332841347
-0.1265134859
-0.1226093882
-0.1188776236
-0.1104970516
-0.1028003217
-0.0985941168
-0.09109353703
-0.08211907662
-0.07654633839
-0.06802616343
-0.06028419439
-0.05343402938
-0.04584367317
-0.03970104096
-0.03300524222
-0.02766769396
-0.02243812032
-0.01812780348
-0.01436734518
-0.01115434749
-0.008659301595
-0.00655813371
-0.004902432377
-0.003628180868
-0.002617504882
-0.001838931136
-0.001260477785
-0.0008430838816
-0.0005483892579
-0.0003203376033
-0.000176365696
-9.182900312e-05
-1.170084173e-05
5.262360079e-05
8.955502144e-05
0.000130060506
0.0001828263788
0.0002438389565
0.0003019516753
0.0003725852764
0.0004542380263
0.000576132023
0.0006980568082
0.0008715915541
0.001056560881
0.001288173967
0.001573790502
0.001867689487
0.002192042254
0.002574132159
0.002970838802
0.003364050496
0.003762867567
0.00412589641
0.004435475493
0.004694105885
0.004904700836
0.005097711603
0.00525262741
0.005359799468
0.005385693088
0.00534950055
0.005193294595
0.005045297934
0.004977430481
0.004842015237
0.004722498163
0.004579733959
0.004448888654
0.004303080497
0.004158370929
0.004043798361
0.003897595296
0.003793354307
0.003663815207
0.00358465314
0.003476342651
0.003410130981
0.00330959503
0.003265033532
0.003161633019
0.003090325227
0.003003997916
0.002944903829
0.002877255337
0.002814395879
0.002748775046
0.00269951211
0.002646637508
0.002596689811
0.002541287469
0.002488363768
0.002452326256
0.002398068728
0.002346583146
0.002281096059
0.002238354307
0.00219386602
0.002156530115
0.002112901643
0.002065631208
0.002025704111
0.001990837935
0.001974515567
0.001947232629
0.001913737016
0.001873333941
0.001840714347
0.001800522962
0.001760175343
0.001727367948
0.001705588042
0.001684041236
0.001658886707
0.001638716712
0.001613858734
0.001579753657
0.001543442753
0.001522499579
0.001494744172
0.001444326649
0.00137792349
0.001321188042
0.001281885302
0.001252066136
0.00123691035
0.001210366952
0.001177042995
0.001163233219
0.001155683967
0.001115404568
0.001058864946
0.0009983003941
0.0009715854696
0.0009765135159
0.0009306511175
0.0008726616322
0.00085583669
0.0008473018018
0.0007764292998
0.0007544667761
0.0007485658489
0.0006901452624
0.0003304051537
0.0005910836324
0.0006973112866
0.0007265948724
0.0007323408172
7.902022954e-05
0.0004878003267
0.0004262445185
0.000317098541
0.0002146888489
0.0001370002176
9.33414102e-05
4.174426177e-05
9.635901466e-06
-3.480025528e-05
-4.846031059e-05
-4.01513637e-05
-6.967624657e-05
-8.647816829e-05
-9.440033779e-05
-0.0001175248976
-0.0001337712768
-0.000131388598
-0.0001470175679
-0.0001859357126
-0.0002222212864
-0.0002644109674
-0.0003115939403
-0.0003535282692
-0.0004154813164
-0.0004844379681
-0.0005411790683
-0.0006007316875
-0.0006472387694
-0.0006975347604
-0.0007566146546
-0.0008009079448
-0.0008506265977
-0.0008939635028
-0.0009314536271
-0.0009921379517
-0.00105251689
-0.001106219376
-0.001137395686
-0.001183212986
-0.001210552013
-0.001246859931
-0.001277779509
-0.001305099556
-0.001340963569
-0.001389665266
-0.001444254258
-0.001494883292
-0.001550799296
-0.001608732484
-0.001660695147
-0.001728803183
-0.001778842109
-0.001846909688
-0.001901054952
-0.001952902798
-0.001994892192
-0.00205357195
-0.002114132257
-0.00218805179
-0.00223661946
-0.002301304293
-0.002363720255
-0.002420308462
-0.002492223591
-0.002547962659
-0.002266557123
-0.002553023939
-0.002624196027
-0.002760645271
-0.002813962401
-0.002899680681
-0.002919091477
-0.003044396668
-0.003083286685
-0.003217363004
-0.003265036919
-0.003405531949
-0.003513580524
-0.003666908216
-0.003806057933
-0.003987957472
-0.00416407855
-0.004361653683
-0.004589590038
-0.004879031656
-0.005182826112
-0.005520654408
-0.005878516532
-0.006268293957
-0.006685912878
-0.007094418715
-0.007476856772
-0.007707835206
-0.008040247283
-0.008109559967
-0.007879923819
-0.007291726599
-0.006452694964
-0.005254882617
-0.003914414844
-0.002350273599
-0.0009814415362
0.0004286813975
0.001744596805
0.002340381877
0.002329533854
0.001181142032
-0.0001309225412
-0.001337056808
-0.001890604426
-0.002006610915
-0.001657257119
-0.001007568092
-0.0003718671086
0.0003208195855
0.0008625684821
0.001392900423
0.001897516745
0.002525992026
0.003188267161
0.004176106035
0.005327599183
0.006936794863
0.008932188797
0.01149132928
0.01464875928
0.01849106112
0.02299016794
0.02811944933
0.03371558586
0.0392298483
0.04478793177
0.05112287725
0.05622542012
0.05991204324
0.06528488737
0.0680360385
0.06842805877
0.06981653332
0.07151941826
0.07115342582
0.06964969973
0.06777856321
0.06569534063
0.06238450519
0.05775008006
0.05264516905
0.04754826347
0.04180427505
0.03553875417
0.02914553536
0.02331379224
0.01772869711
0.01244879183
0.007856826697
0.00200623412
0.000435421792
-0.0004708438112
-0.001011766087
-0.001257982641
-0.001326768277
-0.001327456214
-0.001232325435
-0.001078996186
-0.0009114516798
-0.0007494357976
-0.0005996685353
-0.0004628367081
-0.0002965115708
-5.54591347e-05
0.0003309236247
0.0008360216058
0.00130591898
0.001626977527
0.001759304346
0.001658756646
0.001390537325
0.0009691349553
0.0005967698202
0.0004312929189
0.000518106201
0.0001724647079
0.0006352575872
0.0009449402208
0.0009796234975
0.002015454735
0.002638645815
0.004698287868
0.006116277079
0.008831376132
0.01155874698
0.01428483697
0.01704417731
0.01972896788
0.02220090879
0.02440457742
0.0261274722
0.02760347766
0.02871563179
0.02949262264
0.03018933844
0.03067171063
0.03093097258
0.03088325947
0.03061412661
0.03007396692
0.02917751404
0.02791265493
0.02611258824
0.02403630611
0.02166733112
0.01879434743
0.0157061572
0.01192571962
0.007933665556
0.003899609589
-0.0003328624654
-0.004428681866
-0.008929340727
-0.01350921471
-0.01818904661
-0.0233811535
-0.02817964195
-0.03339532237
-0.03848163844
-0.0433808881
-0.0485593517
-0.05296886294
-0.05801149232
-0.06247632132
-0.0669614001
-0.07189607396
-0.07664128902
-0.08220563513
-0.08730273805
-0.09242354103
-0.09654551538
-0.10033023
-0.1037625732
-0.1058792593
-0.105168942
-0.1010571013
-0.09682292861
-0.09562637374
-0.09811756691
-0.09566890237
-0.08904058572
-0.08267638827
-0.0809057166
-0.07947294232
-0.07197399211
-0.06538373546
-0.0641834979
-0.05865706412
-0.05145376087
-0.04886019466
-0.04254927557
-0.03750514329
-0.03334517234
-0.02799802877
-0.02459350867
-0.02015302338
-0.01701704555
-0.01367286695
-0.01114176678
-0.008869158778
-0.006863866337
-0.005358942494
-0.004053501486
-0.003047889235
-0.002262974507
-0.001641046337
-0.001159510842
-0.0007991220855
-0.0005390121465
-0.0003601800348
-0.0002126212918
-0.0001218807771
-7.470012388e-05
-2.274177206e-05
1.783434285e-05
3.578797688e-05
5.518118563e-05
8.57774092e-05
0.0001202047565
0.0001488499936
0.0001827805397
0.0002201857803
0.0002871577029
0.0003398403937
0.0004350528516
0.000522364597
0.0006401527112
0.0008103525088
0.0009635287395
0.001116309025
0.001346758265
0.001570091524
0.00180482258
0.002066220331
0.00229724779
0.002504611459
0.002719210181
0.002917481586
0.003090963662
0.003241272677
0.003372781964
0.003473111702
0.003519588401
0.003521223846
0.003515452346
0.003511644939
0.003484636148
0.00343968134
0.003378902603
0.003316731255
0.003245260942
0.003172565879
0.00309860658
0.003014750513
0.00294297858
0.002864080475
0.002799718768
0.002729583126
0.002666445497
0.00260341267
0.002540722745
0.002476079235
0.002416505134
0.002357233885
0.002304931325
0.002251385933
0.002207864313
0.002160930461
0.002120184595
0.002080609596
0.00204078918
0.002004658154
0.001967332882
0.00193549874
0.001902156439
0.001873771702
0.00184052998
0.001811051587
0.00177951889
0.001750808154
0.001721273417
0.001690275183
0.001661747314
0.001631141405
0.001605858705
0.001579173086
0.00155281269
0.001525116885
0.001496641743
0.0014698053
0.001442612565
0.001416377345
0.001393156876
0.00136856071
0.001343742083
0.001318279825
0.001291171127
0.001263860807
0.001235107003
0.001209203519
0.00118205065
0.001151321099
0.001118261963
0.001086056275
0.001058897678
0.00103376611
0.001010635152
0.0009878537376
0.0009641900604
0.0009440421577
0.0009262518641
0.0008999148811
0.0008694319311
0.0008360413343
0.0008138321575
0.000800241542
0.0007721377479
0.0007419362208
0.0007156826565
0.0006934559092
0.0006533253218
0.0006168267208
0.0005603803594
0.0004855787496
-2.886515982e-06
0.0003031071882
0.0003681082358
0.0004425081222
0.0004798119717
-0.0002620101927
0.0003486360849
0.0002696898508
0.0002585685503
0.0001562506093
3.261629886e-05
-1.65603116e-07
-5.5771173e-05
-0.0001004472648
-0.0001304831295
-0.0001613664073
-0.0001801752764
-0.0002048780868
-0.0002235027179
-0.0002479148098
-0.0002746175182
-0.0002939639135
-0.0003121447915
-0.0003348520191
-0.0003631307952
-0.0003938210636
-0.0004240730406
-0.0004583177453
-0.0004958448099
-0.0005357927328
-0.000577974644
-0.0006169820699
-0.0006558640876
-0.0006932173393
-0.0007301164408
-0.0007715224626
-0.0008062891157
-0.000836600028
-0.0008680614062
-0.0009013542715
-0.000942944491
-0.0009760902722
-0.001008323371
-0.001041867692
-0.001079587552
-0.001117897276
-0.001151775914
-0.001182923133
-0.00121692547
-0.001259944312
-0.001301584442
-0.001340221255
-0.001378735215
-0.001421654197
-0.001465437774
-0.001503789317
-0.001542902159
-0.001580142328
-0.001624311238
-0.001657316006
-0.001694942366
-0.001733076779
-0.00178049435
-0.001824177656
-0.001863425768
-0.001897389159
-0.001945520019
-0.001989625643
-0.002036517461
-0.002086430841
-0.002143306741
-0.002225098629
-0.002273523178
-0.002312267552
-0.002367933933
-0.002407035022
-0.002457810976
-0.002503888991
-0.002560214802
-0.002624897984
-0.002702836917
-0.002788730052
-0.002888013771
-0.002986102287
-0.003106346943
-0.003219473792
-0.003358701102
-0.003507957412
-0.003668757193
-0.003852340098
-0.004039494803
-0.004247299722
-0.004457922967
-0.00465852922
-0.004866923487
-0.005041516163
-0.005171354904
-0.005218874441
-0.005168035905
-0.005054512327
-0.004834895324
-0.004341329489
-0.0038183425
-0.003349668589
-0.002527472524
-0.001824373733
-0.001097409129
-0.0003585159553
0.0003290949818
0.0009973119853
0.001294969377
0.001269667473
0.0006646696106
-2.510798948e-05
-0.0006814606953
-0.0009934427762
-0.001073413964
-0.0008971240282
-0.0005663963823
-0.0002265725987
0.0001303473076
0.0004240839831
0.0007060825532
0.0009827395014
0.0013129062
0.001673836515
0.00218346765
0.002798937688
0.003651655517
0.004718255724
0.006094973896
0.007815595973
0.009938586489
0.01248471577
0.01541726126
0.01865351522
0.02195669335
0.02536423112
0.02969382783
0.03302224274
0.03491289534
0.03969618843
0.0417072386
0.0413601406
0.04273003385
0.04478279342
0.04468367605
0.04338059353
0.04227100065
0.04123521727
0.03918261938
0.03574156589
0.03225968056
0.02919999021
0.02551520207
0.02122793679
0.01712133959
0.0136188979
0.0102485752
0.007010365884
0.004234067271
0.000924752057
0.0001175691841
-0.0002479383514
-0.0004901131447
-0.0005993748529
-0.0006422883105
-0.0006855075173
-0.0006606927882
-0.0005898499856
-0.0005065999067
-0.000424032279
-0.0003465448473
-0.0002748993677
-0.0001893553862
-6.900120948e-05
0.0001198539403
0.0003658335113
0.000592882252
0.0007630430945
0.0008629673924
0.0008374433998
0.0007162294972
0.0004723883435
0.0002559967678
0.0001923892782
0.0003285796707
3.060907471e-05
0.0004172854971
0.0006252454538
0.0004338840035
0.001211977977
0.001158503855
0.002617525969
0.002836639243
0.004469887626
0.005900274739
0.007409284149
0.008960462336
0.01052716083
0.0119983008
0.01334608146
0.0144520414
0.01540755862
0.01618411582
0.01675020284
0.01724464327
0.01760561991
0.01780945351
0.0178262746
0.01768223803
0.01742250439
0.01695657481
0.01626648728
0.01520606769
0.01395223425
0.01256746289
0.01095595376
0.009141927506
0.006872022285
0.004401767179
0.001900469844
-0.0006577750119
-0.003135993821
-0.005888342312
-0.008729120078
-0.0115814686
-0.01472340768
-0.01767501883
-0.02085393966
-0.02393201229
-0.02691764655
-0.03010589386
-0.03278579887
-0.03581073627
-0.03856055083
-0.04121022146
-0.04411933471
-0.0469329946
-0.05022230756
-0.05317673384
-0.05620844878
-0.05869618915
-0.06100214691
-0.0633741786
-0.06479677109
-0.06402961243
-0.06052633355
-0.05733824227
-0.05724362994
-0.06075917721
-0.05879465806
-0.05282141664
-0.04766852137
-0.04799712904
-0.04873512376
-0.04262382458
-0.03750568009
-0.03877300962
-0.03506765451
-0.02960210479
-0.02940009576
-0.02480559775
-0.02186616054
-0.01988208736
-0.01618188269
-0.01461773086
-0.01170270871
-0.01014200253
-0.008004382011
-0.006612820437
-0.005320440233
-0.004075607145
-0.00316825909
-0.002423498547
-0.001831462357
-0.001369922052
-0.0009956811706
-0.0007100588227
-0.0004899944081
-0.0003340879346
-0.0002292224959
-0.0001348182759
-7.915703312e-05
-5.475934174e-05
-2.121879929e-05
4.365767997e-06
1.243107079e-05
2.14678815e-05
3.938575969e-05
5.937401324e-05
7.31607584e-05
8.95004328e-05
0.0001053114967
0.0001435423613
0.0001627498023
0.0002166935075
0.0002536745652
0.0003093850813
0.0004139039832
0.0004887990186
0.0005424038523
0.0006811997181
0.0007910684861
0.0009137086517
0.001076472601
0.001200202316
0.001301905494
0.001441584113
0.001587569785
0.001697486866
0.001789151024
0.001890772024
0.001993112474
0.002053136441
0.002082156982
0.002114330182
0.002149355839
0.002164317268
0.002157616899
0.00213918937
0.002122272959
0.002092994715
0.002064250506
0.00202810856
0.001987106056
0.001950973828
0.00190820731
0.001872303965
0.001831967648
0.001793770349
0.001754251639
0.001714488112
0.001674646538
0.001637060846
0.00159890098
0.001565674974
0.001530642
0.001501887573
0.001472497135
0.001444963159
0.001419725989
0.001393520458
0.00136952189
0.001345974723
0.00132471331
0.00130403076
0.001285089636
0.001264095831
0.001244395811
0.001223118395
0.001203707987
0.001183319521
0.001161796883
0.001141932963
0.001120336831
0.001102181225
0.001083525377
0.001065344922
0.001047540321
0.001027753275
0.001009773573
0.0009911869105
0.000972563468
0.0009555761095
0.0009368970694
0.0009189488793
0.000900594142
0.0008811988401
0.0008620344237
0.0008415003998
0.0008229565318
0.0008047485888
0.0007849467007
0.0007642419524
0.0007432820882
0.0007252740034
0.0007074830867
0.0006884602157
0.0006707781208
0.0006544106717
0.0006388004656
0.0006238458144
0.000605466161
0.000587319695
0.0005667270178
0.0005495738363
0.0005358632429
0.0005186116324
0.0005011795816
0.0004811685131
0.0004625236552
0.000438425784
0.0004090112191
0.0003506722472
0.0002812508181
-0.0002451797062
0.0001085647307
0.0001185511428
0.0002017464089
0.0002871102921
-0.0004350454033
0.0002760948774
0.00017403854
0.0002176888348
0.0001210639024
-1.860286683e-05
-2.395652271e-05
-6.722592151e-05
-0.0001093402569
-0.0001257107131
-0.0001542640184
-0.0001698295804
-0.0001914973556
-0.0002066357672
-0.0002257074253
-0.0002472973483
-0.0002639120393
-0.0002805444044
-0.0002982694282
-0.0003183021983
-0.0003414674005
-0.0003627171418
-0.0003844229894
-0.0004106371858
-0.0004379997005
-0.0004649163331
-0.000489006654
-0.0005134896587
-0.0005408942796
-0.0005672041704
-0.0005936525048
-0.0006161984747
-0.0006367048904
-0.0006601773349
-0.0006837627256
-0.0007110400112
-0.0007318273167
-0.0007531411342
-0.0007796414689
-0.0008068353866
-0.0008328255496
-0.0008561382383
-0.000879927739
-0.0009076823921
-0.0009386788376
-0.0009667205661
-0.0009935265395
-0.001022240696
-0.001052439182
-0.001080801479
-0.001105293744
-0.00113292141
-0.001158568646
-0.001186406101
-0.001207627797
-0.001234466808
-0.001264810261
-0.00129697188
-0.001324968286
-0.001351547946
-0.001378129319
-0.001413723291
-0.001443110137
-0.001474329633
-0.00151286202
-0.001548793921
-0.001601625538
-0.001643023911
-0.001673238646
-0.001714095752
-0.001741993779
-0.001780162151
-0.001813445922
-0.001856359686
-0.001899917637
-0.001954995396
-0.002013206923
-0.002079166729
-0.002140586847
-0.00221743794
-0.002290734929
-0.002376126829
-0.00246233257
-0.002555790135
-0.002658796943
-0.002757368963
-0.002859967239
-0.002950490495
-0.003028664707
-0.003096533886
-0.003126548336
-0.00312084136
-0.003057773283
-0.002930772016
-0.002763213729
-0.00257078738
-0.002162435358
-0.001866558613
-0.001740900797
-0.001212944935
-0.0008964728078
-0.0005380947298
-0.0001647526156
0.0001789257027
0.0005240508575
0.000680267956
0.0006893528162
0.0003677695822
3.387106894e-05
-0.0003269731617
-0.0004959648045
-0.000559466297
-0.0004777488914
-0.0003132930843
-0.0001401733871
4.210325339e-05
0.000198385166
0.0003486220862
0.0004961685799
0.0006656740245
0.0008532988034
0.001112040553
0.001429451031
0.001863942142
0.002408165244
0.003114595027
0.004006826523
0.00510951823
0.006441049714
0.007991491699
0.009721415007
0.01150282296
0.01331864643
0.01602129365
0.01787732892
0.01845020818
0.02212630682
0.0233114725
0.02235749203
0.02336308978
0.02529927149
0.02527685892
0.02411001414
0.02354629694
0.02334579253
0.02230275268
0.01985680384
0.01772885642
0.01636397062
0.01433367745
0.01159594976
0.009182092914
0.007469782748
0.005654208842
0.003756475984
0.002154612355
0.000387800973
1.037596787e-06
-9.606780668e-05
-0.0002024059006
-0.0002544875274
-0.0002873754355
-0.0003454393421
-0.0003500439894
-0.0003190712962
-0.0002784862678
-0.0002370066929
-0.0001975600751
-0.0001601271954
-0.0001168716319
-5.766439214e-05
3.298505358e-05
0.000150712564
0.0002566126549
0.0003453739475
0.0004160195237
0.0004175203431
0.0003650112915
0.0002192113032
9.203701373e-05
7.405084991e-05
0.0002061976557
-3.389201881e-05
0.0002625740559
0.0003997340856
0.0001710865739
0.0007538901482
0.0004541144392
0.001556196297
0.001256243125
0.002298709958
0.003013953837
0.003822152451
0.004649924664
0.005497567474
0.006304815674
0.007062636821
0.007700799105
0.008251897603
0.008715637827
0.009064560962
0.009359270518
0.009567032382
0.009684139765
0.009702222806
0.009617818102
0.009474854867
0.009224935447
0.008833020625
0.008246464829
0.007528550851
0.006797193853
0.005925334325
0.004914226463
0.003652806253
0.00230224131
0.0009339559738
-0.0004754254745
-0.001844607576
-0.003350833113
-0.004908903647
-0.006462552026
-0.008164036621
-0.009789051062
-0.01152173476
-0.01318646487
-0.01479557477
-0.01654249799
-0.01803478785
-0.01965236195
-0.02113746331
-0.0225809465
-0.02414187786
-0.02565641605
-0.02744181304
-0.02901588257
-0.03063896733
-0.03204687082
-0.03339845241
-0.03501028162
-0.03599351639
-0.03539712706
-0.03276323714
-0.03063412704
-0.03122135816
-0.03501122163
-0.03368584185
-0.02885941077
-0.02501275834
-0.02644028571
-0.02830721971
-0.0236668433
-0.01992500194
-0.022372366
-0.01995919051
-0.01593350138
-0.01706337643
-0.01373610132
-0.01212306009
-0.01144455092
-0.008933580999
-0.008453838485
-0.006496182359
-0.005882161828
-0.004518652539
-0.003806759407
-0.003103150104
-0.002340400012
-0.001819498978
-0.001393235386
-0.001068958331
-0.0008031726328
-0.0005865001782
-0.0004209165739
-0.0002906563747
-0.0002004304641
-0.000141165284
-8.182505242e-05
-4.875644843e-05
-3.751655014e-05
-1.603675088e-05
-5.227427932e-08
2.961007159e-06
6.896788928e-06
1.752658162e-05
2.917114566e-05
3.563031276e-05
4.341073083e-05
4.931309855e-05
7.164488791e-05
7.619866403e-05
0.0001075684039
0.0001210422252
0.0001452547714
0.0002108711864
0.0002465372556
0.0002530373924
0.0003393100167
0.0003869151345
0.0004445858688
0.000547078006
0.0006065588332
0.0006393244429
0.0007210778646
0.0008221262673
0.0008789542787
0.0009149905993
0.0009770323103
0.001060513527
0.001104778428
0.0011186449
0.001147125492
0.001189882413
0.001212817068
0.001213668353
0.001210891022
0.001215416323
0.001200171173
0.001196064732
0.001177932559
0.00116217811
0.001145962566
0.001126972098
0.001108578031
0.001088715631
0.001068714878
0.001047245455
0.001025139796
0.001003449028
0.0009826268855
0.0009608486778
0.0009421765131
0.0009219539212
0.0009052305931
0.0008884943949
0.000872193143
0.000857441561
0.0008419256089
0.0008277651216
0.0008137869178
0.0008009604158
0.0007888692618
0.0007771135463
0.0007645760947
0.0007527116525
0.0007397047789
0.0007278143157
0.0007150567352
0.0007017226145
0.0006895082671
0.0006761830961
0.0006649245469
0.0006533927067
0.0006420943423
0.0006314273127
0.0006190857525
0.0006079884147
0.0005964845245
0.0005847729879
0.00057399957
0.0005620368764
0.0005508931723
0.0005395180146
0.0005274636654
0.0005156643416
0.0005029879761
0.000491613847
0.0004805528224
0.0004686292024
0.0004563402769
0.0004436752114
0.0004327136774
0.0004217983884
0.000409431839
0.0003976917506
0.00038739157
0.0003774531492
0.000367695177
0.0003563637722
0.0003457823672
0.0003338820711
0.0003231142103
0.0003137012531
0.0003034847593
0.0002936733483
0.0002817385642
0.0002699995436
0.0002564816988
0.0002384635471
0.0001974438834
0.0001453459116
-0.0003257078323
-6.697097079e-06
-1.175277524e-05
5.968713762e-05
0.0001677850659
-0.0004527255458
0.0002304697942
0.0001131554814
0.000180937806
9.818930664e-05
-3.722649926e-05
-1.67108633e-05
-4.549192555e-05
-8.038809845e-05
-8.425357566e-05
-0.0001074344691
-0.0001138336474
-0.0001301598448
-0.000140112593
-0.0001517288287
-0.0001654326456
-0.0001759380607
-0.0001875651715
-0.0001989160449
-0.000210695369
-0.0002254581621
-0.0002393899256
-0.0002523544513
-0.0002680798036
-0.0002841092648
-0.0003001550084
-0.0003148029305
-0.0003290661527
-0.0003459556306
-0.0003624321615
-0.0003782998869
-0.000391674825
-0.0004045861693
-0.0004203226034
-0.000435039216
-0.0004511746596
-0.0004643328737
-0.0004780971904
-0.000495456909
-0.0005122739416
-0.0005277695454
-0.000542404599
-0.0005583442323
-0.0005766142732
-0.0005950242052
-0.0006120627804
-0.0006291995125
-0.0006477221067
-0.0006663793683
-0.0006832641568
-0.0006985587503
-0.0007165848752
-0.000732341498
-0.0007488375946
-0.0007625991367
-0.0007804627126
-0.0008001301855
-0.0008189462977
-0.0008357609115
-0.0008531681885
-0.0008710937009
-0.0008939173027
-0.0009117125071