/*--------------------------------*- C++ -*----------------------------------*\
| =========                 |                                                 |
| \\      /  F ield         | OpenFOAM: The Open Source CFD Toolbox           |
|  \\    /   O peration     | Version:  2212                                  |
|   \\  /    A nd           | Website:  www.openfoam.com                      |
|    \\/     M anipulation  |                                                 |
\*---------------------------------------------------------------------------*/
FoamFile
{
    version     2.0;
    format      ascii;
    arch        "LSB;label=32;scalar=64";
    class       volScalarField;
    location    "1000";
    object      ddt0(omega);
}
// * * * * * * * * * * * * * * * * * * * * * * * * * * * * * * * * * * * * * //

dimensions      [0 0 -2 0 0 0 0];

internalField   nonuniform List<scalar> 
162063
(
5815.378055
6534.090607
6114.879745
4973.01558
3167.996745
1312.095515
591.5719607
233.8612928
-150.750125
-465.5998449
-814.3644851
-1124.543288
-1324.310258
-1371.264238
-1376.092287
-1186.090686
-873.3139749
-400.5993555
-524.3217141
-1639.027892
-2540.753225
-2903.956988
-1345.355581
-97.28839424
-1603.013463
-5558.130581
-3133.425926
-7275.766108
-7550.089771
-5524.297229
-6633.783962
-5210.25124
-6015.167112
-5201.223831
-5667.65396
-5845.546566
-5956.677915
-5946.871762
-5882.466186
-5712.364085
-5469.859178
-5165.721188
-4827.522197
-4492.522509
-4167.795783
-3860.278529
-3579.334994
-3322.327162
-3076.325586
-2843.20555
-2630.788393
-2469.287784
-2309.265032
-2150.213578
-2004.761559
-1874.257503
-1742.140341
-1614.437798
-1473.779212
-1346.704334
-1233.468456
-1124.740297
-1027.155021
-925.8985127
-823.1109854
-721.3204349
-617.9556313
-522.960118
-424.6976406
-321.8086559
-217.938753
-110.682555
-11.06936697
101.6167763
223.9674005
343.9582524
509.2301119
720.5808651
969.1889872
1239.151347
1471.43727
1693.191562
1915.721031
2225.275271
2480.030751
2317.591686
1681.840198
1276.296356
1815.340086
3470.350291
3496.302116
2126.206199
1019.166847
2020.283174
3419.120873
2328.717504
1400.383596
2910.53802
2588.377072
1460.224495
2256.230228
1434.550277
1120.645366
1190.616023
564.5486287
617.8034799
182.8037866
164.7907267
-41.35507626
-42.07464318
-17.46365235
-23.05969551
0.3550554561
72.87574444
166.7732689
186.9436982
179.7332654
92.79721982
-320.7536148
-194.1354436
894.7115244
-1142.155112
-1535.852209
1978.371447
596.0009633
-1185.989932
1583.537566
3594.127236
2491.396117
1054.720933
2001.536842
3830.635952
4800.700619
4224.297444
6570.864161
6031.286118
7588.381737
8017.077889
6842.229831
8037.811688
9850.361874
9096.454943
8783.577437
8384.13441
7612.016358
7388.545706
6913.837739
5642.968939
4433.153416
3681.934518
2920.133149
1922.02295
871.7367674
234.2659405
-214.8683609
-689.7371841
-1108.371906
-1348.609257
-1433.681679
-1531.862747
-1551.183255
-1501.299538
-1432.450662
-1325.975143
-1212.61776
-1092.784317
-964.6169728
-829.6994947
-707.3775386
-580.3650485
-477.5361341
-365.4297834
-276.8798467
-188.3877912
-110.0085619
-38.2106181
30.58825708
83.97386517
137.0735089
179.6502513
216.9425263
250.4971061
277.1213467
301.878713
318.6545194
334.1179317
344.3738043
352.8553702
359.9836563
368.4386435
375.1824159
379.689213
382.1623506
382.9607662
386.213833
387.9558726
387.486746
383.6143943
377.6625289
372.8170299
366.4188931
360.6098702
355.7561881
350.7450285
346.7574761
341.2066733
334.9011162
327.6315232
318.8563593
311.314804
303.5826638
295.212575
283.9512288
270.7226504
259.5774887
249.6875693
241.2989336
232.8390163
220.8547353
209.1992248
201.3994569
194.9609899
185.0848167
169.3485457
155.4545196
146.2345987
140.4319399
129.3331958
112.1240758
103.2125662
96.41041734
91.00428083
117.1117571
217.9378996
317.9079018
854.3947269
482.4502938
459.728115
241.6037186
53.14287471
736.8773749
-72.23946254
-119.0486264
-241.6562785
-235.8943609
-117.7346727
-124.4359949
-91.17138878
-56.16901013
-81.81919625
-79.30724691
-83.6559533
-98.86311131
-104.5221281
-119.0625756
-132.9877789
-148.2042367
-157.0939253
-166.9852803
-181.5679762
-193.7752476
-204.7314496
-215.2354392
-225.0549484
-237.2683419
-250.086372
-263.1253993
-275.9457109
-286.387524
-296.4007517
-306.6275404
-317.7637844
-327.3786781
-333.5854782
-340.7005638
-348.6842089
-357.9379696
-366.0978584
-371.1861021
-376.1738568
-379.6933969
-382.4260515
-387.3201449
-389.8288201
-388.5829172
-388.246777
-389.2238822
-389.2417689
-385.6333169
-382.7523042
-379.2112099
-374.164514
-371.1532468
-366.5897213
-362.8718425
-354.6214784
-342.749352
-329.3628615
-315.622306
-300.9595084
-286.2781581
-262.9361423
-242.4725253
-216.3767852
-183.1123358
-159.4108931
-205.1831102
-57.78489012
11.5798635
81.53340826
148.005625
209.5170778
296.919664
371.6810895
479.2581185
575.3037363
713.0894601
843.8834771
995.030642
1165.028898
1338.786712
1525.617117
1718.704063
1920.012703
2145.867204
2295.126858
2419.513319
2470.696016
2406.745889
2200.628243
1670.50589
849.8761306
-464.3698472
-2276.836376
-4757.814418
-7663.688826
-11801.61797
-15517.8591
-16811.96056
-19844.39134
-20306.38203
-16475.53276
-12336.22684
-7691.604433
-5996.798535
-2904.406768
-2148.225324
-555.5789912
-295.3120362
137.8967867
24.60659081
231.1798843
245.8216828
204.7150277
266.7654161
308.4077398
352.1496347
340.1397421
361.0282855
403.6341514
434.9424278
404.7497895
356.9074512
267.7459055
124.2008973
-81.87753207
-338.6806154
-598.4541875
-842.4602813
-1070.106165
-1242.452289
-1310.924491
-1424.038175
-2193.545224
-1939.463349
-562.9870262
-3179.222704
-2684.61708
-392.9769252
-701.9728951
-2035.448202
-1734.729017
-660.893582
-637.9690926
-1227.18457
-1072.585379
-230.3428468
134.0916725
37.39610948
131.6943456
811.2107845
1501.078104
1839.373197
2511.601228
3455.575516
4427.552872
7563.897567
8079.01703
5482.874419
2696.622282
-275.8788314
-2318.275185
-1183.591447
381.604853
1160.646323
1583.176346
1608.801181
1421.579615
1144.060585
895.4152455
726.742996
761.8097329
1017.132191
1684.734987
783.2456631
-2627.802084
-4763.83701
-5130.963487
-326.2279363
3584.180389
1435.9349
-6533.338415
1168.790413
-7524.212831
-8522.368838
-3067.235265
-7521.030655
-3389.234673
-6905.962558
-4114.968827
-5604.331287
-5926.091987
-6310.349205
-6495.501753
-6713.480646
-6786.529482
-6750.87689
-6674.440069
-6458.15621
-6265.278735
-6029.087386
-5763.773759
-5515.373085
-5240.903819
-4981.708738
-4677.511258
-4402.115331
-4173.66477
-3922.614176
-3697.011204
-3476.533803
-3255.559351
-3086.725855
-2861.871694
-2645.140163
-2418.934969
-2194.097062
-2001.985515
-1809.336671
-1617.336345
-1409.904294
-1204.189657
-1034.75072
-835.6957885
-662.8730236
-481.2242598
-287.477792
-118.0950486
88.55801968
246.4455533
463.9911655
635.9289867
856.9937129
1169.647571
1461.730899
1851.236443
2090.40062
2403.679129
2702.969593
3235.654331
3682.9829
3239.190938
1755.971294
771.5852273
1869.644839
5707.057498
5623.925853
2325.138362
-384.242261
2073.577608
5567.205266
2810.845767
351.5827778
4302.540911
3623.336306
860.0265846
3229.344606
1508.125848
1011.624008
1594.253156
385.1884065
920.4915537
119.1074879
329.6898815
-11.74952487
48.15857163
86.80689719
155.7896943
-29.88641166
17.90056153
127.6422003
113.3737406
97.12780557
-12.89547856
-868.4634058
-584.9877493
1899.535258
-2708.176448
-3753.826691
3690.778378
357.6636526
-4116.0396
1361.831426
5390.257343
2326.382189
-1727.939964
-496.1929632
2738.424124
4233.177403
1068.551719
6483.69317
3053.557064
6761.362091
7436.131856
2251.134712
4734.256142
10598.92351
7963.7447
8117.074436
8122.260308
6691.418533
7948.008715
9094.666674
7360.633557
5625.656749
5771.145056
5854.264427
4770.965747
3014.676675
2473.238252
2372.254562
1747.146619
923.7646682
491.1672406
478.4369878
121.7130046
-60.45997505
-94.16606941
-212.0831774
-160.8193417
-207.1120947
-165.8993391
-162.3171793
-70.93273411
-27.72417649
72.80043519
110.4359704
215.9932626
262.3159653
336.0393373
386.2111298
455.7883654
510.2879347
552.2971127
585.8039282
631.0112073
662.9822551
695.3183695
714.4878009
733.096214
765.3431998
773.5922262
778.817906
768.2041817
776.0878634
783.1598129
791.0206618
790.7482414
783.1472467
777.2527369
776.7418439
786.3839281
785.6789463
777.1031714
761.3473568
753.2603884
736.7337061
719.0228263
706.2172856
699.4144612
694.1982678
684.4705116
678.9733588
672.221189
658.5001694
645.1363232
640.3194507
631.1184646
606.5552538
569.8858968
539.4062066
516.0494015
497.3250905
486.987106
466.7218202
442.0062645
428.7860665
418.9189071
391.3033941
350.2553033
308.7457887
285.2786454
278.791357
244.1432089
200.639297
188.385695
187.1682151
168.8719826
225.2960096
465.3162843
726.4828731
2571.327312
1317.591143
1169.804874
656.9336079
70.51085273
2007.068781
-415.9603078
-444.5428457
-738.947144
-667.9575455
-255.1063617
-316.6951742
-272.2932265
-159.150629
-228.2625552
-211.6037373
-205.7047684
-239.2447113
-251.8534047
-278.1125524
-297.9831002
-324.0021122
-336.2418423
-356.2449799
-388.6226027
-412.9331673
-439.8311695
-467.0229699
-484.0933463
-511.979366
-546.0030564
-571.1561084
-597.0575765
-613.3452637
-631.0372334
-654.3542932
-671.1961152
-691.1152339
-703.0017292
-712.1768527
-733.2456331
-756.7878
-772.7019048
-770.0034304
-776.551894
-772.4951832
-775.4343952
-775.8412508
-770.9126863
-768.2618394
-774.0173321
-782.7303591
-785.3153194
-788.3236926
-791.1676485
-789.404683
-797.139321
-793.8270282
-801.8624821
-801.3258205
-792.2427458
-774.0696882
-767.4867119
-761.222483
-765.7414152
-744.4615759
-728.2136657
-713.2763773
-684.731693
-655.8428783
-603.182264
-253.2878421
-442.2463133
-392.7086087
-422.2328345
-402.2025355
-382.3389876
-293.9611216
-297.1388774
-192.8827047
-176.980935
-40.16469819
-8.306328768
80.18487921
130.2275312
206.1611437
249.7269676
308.764987
367.7590142
381.1451731
279.5432375
148.5614041
-111.6880566
-480.6371649
-1042.681207
-1944.069233
-3121.099539
-4672.697963
-6482.015078
-8717.120052
-10642.11262
-14937.04438
-16588.08071
-11688.68454
-15431.89134
-13201.14514
-10051.81605
-7888.930474
-4582.895658
-3860.971502
-1732.896497
-1911.720412
83.8381661
-204.9486265
472.3038152
82.36509366
476.8212408
239.2657154
250.0297327
148.083631
384.7558264
331.4852017
363.7936214
304.4109697
502.8566088
316.1655591
525.6021664
321.2743642
334.5854696
187.2072403
34.44327117
-238.5963565
-518.4815655
-822.2205382
-1069.300445
-1233.771045
-1423.951342
-1511.222002
-3597.572663
-3176.434061
633.92079
-6280.597537
-5300.37945
762.3221742
-154.7742295
-4238.096894
-3629.826034
-249.1149436
-198.096221
-2436.451906
-2397.535497
372.2838597
1402.214521
345.3730973
-257.5614861
1524.606495
3161.054381
2546.96526
2647.427405
3999.193898
5635.324391
11242.29111
11410.95849
3675.325078
-1846.47802
-6559.746318
-8400.938494
-2743.210291
2241.499595
4702.636183
5889.829873
6271.708959
6179.279041
5715.707726
5184.412367
4765.017476
4576.292675
4741.333325
5867.648586
3260.681616
-5219.040685
-9555.648039
-10147.71523
1772.559082
10260.24503
5818.045294
-11064.63528
8443.158523
-9838.708417
-11829.13124
1781.670403
-10401.37026
1465.606969
-9466.482962
-752.0224107
-5028.472415
-5336.061133
-5905.847041
-6291.644117
-6650.67619
-6929.418307
-7122.986012
-7249.377087
-7252.236222
-7229.058957
-7160.977633
-7024.151687
-6860.836918
-6678.232621
-6492.427217
-6257.30023
-6000.291915
-5741.423112
-5476.562687
-5219.680867
-4970.663717
-4760.45668
-4559.789346
-4278.598671
-3979.397017
-3686.450233
-3413.326981
-3152.960178
-2867.278764
-2578.40011
-2291.360902
-1998.853091
-1730.715446
-1422.317739
-1144.527633
-871.9592486
-590.3789797
-315.6725353
-10.63479546
214.8256662
496.8254324
761.9647491
1052.703418
1426.418657
1807.22403
2242.870741
2513.876854
2906.124344
3355.29595
4351.309798
5076.239033
4139.610849
840.7891915
-1391.224832
946.7961168
9502.131743
9169.25075
1660.591662
-4418.889285
1491.992842
9751.229896
2958.684602
-2913.915476
6994.468768
5233.039929
-1374.792341
5169.959447
1001.343875
333.7724236
2295.584341
-364.1449391
1427.77451
-282.3522612
621.494824
-160.8342616
120.4666126
154.6234943
35.53035315
25.61220943
18.49733584
75.89190359
70.87844095
63.22343265
-80.338267
-1827.841879
-1120.600939
4340.715062
-5685.064539
-7867.531136
7779.174591
275.5900634
-9228.049714
1804.329701
9671.766225
3069.182376
-6026.456755
-3778.336706
2114.738416
5525.985514
-3842.151051
9202.938634
-1702.559829
7654.08503
9636.496727
-6192.387923
-1436.923915
14443.08975
5599.933091
6783.676539
7530.175489
2326.811565
6465.169316
11921.08037
8321.858098
3890.777984
6080.828183
8733.50096
7331.206454
3479.643894
3127.643903
4643.226258
4064.04197
2156.385355
1690.949514
2227.069418
1649.942635
1295.999375
1413.606259
1101.796934
1206.037756
1036.058705
964.696137
860.4486057
881.3841741
855.1115024
876.8913659
901.3806153
933.6690778
954.0986315
985.7980319
1014.609048
1046.220036
1072.369278
1103.777665
1121.441651
1149.012481
1167.557933
1183.845396
1198.315436
1206.274857
1224.48733
1230.286474
1243.898672
1244.303178
1250.05446
1254.157096
1256.285
1255.92569
1248.95645
1240.628613
1231.537587
1224.398194
1212.845997
1199.261744
1179.765606
1164.151164
1145.298114
1125.380801
1106.546097
1088.735628
1071.391718
1049.178089
1027.226537
1005.747983
982.7282894
961.3801464
941.8930279
920.5843703
894.3660366
862.119635
831.3648564
801.4783668
773.1777036
750.6891683
724.0137021
693.4138238
668.4842142
646.0814564
613.8773088
571.3040435
529.7471394
498.8334647
476.5445171
436.4221302
389.7953395
357.7790322
338.6121027
329.7900546
404.8004245
810.8736267
1276.001141
6238.705728
2252.719817
2713.338955
1581.162291
-118.5894054
4962.475857
-1714.777722
-1086.634901
-1942.661816
-1480.733011
-306.0949612
-613.9541875
-521.0065666
-274.0754343
-417.3396192
-356.1884056
-398.224142
-417.3384525
-436.6600855
-493.7735685
-521.5471001
-563.646706
-596.7035723
-635.1358043
-678.8878717
-705.8230943
-733.8098836
-771.5012881
-796.6148354
-825.8335958
-864.1323914
-893.0785694
-922.8521892
-945.5752675
-967.0506959
-996.9619104
-1020.35088
-1037.749547
-1049.185887
-1065.832888
-1091.277007
-1107.655903
-1119.848563
-1125.456988
-1139.980417
-1157.636198
-1170.090284
-1177.832296
-1186.138357
-1206.372165
-1224.167611
-1234.306825
-1239.671461
-1248.611154
-1259.628913
-1261.32545
-1260.160026
-1261.651591
-1272.446942
-1267.584633
-1261.577954
-1252.985683
-1262.154761
-1262.706539
-1253.882502
-1233.567045
-1225.521131
-1219.770336
-1207.241235
-1179.537056
-1200.512142
-1238.117321
-1230.534419
-1174.422435
-1148.643994
-1115.474624
-1094.527312
-1057.468552
-1032.077275
-1003.235903
-998.0054457
-978.5408008
-989.5520347
-990.2565495
-1015.769389
-1019.824427
-1069.828685
-1152.660086
-1253.931194
-1401.080527
-1601.952756
-1873.589898
-2331.116438
-2832.552148
-3466.736874
-4486.154092
-5498.941849
-6742.359962
-8202.46222
-9648.815457
-9853.187617
-15890.85853
-15230.91316
-713.3162523
-11441.78364
-8448.599742
-5574.718895
-6031.338963
-2264.854686
-3383.989302
-749.0651024
-3346.965845
1279.361911
-963.8913956
1139.639402
-294.6170129
817.4192992
478.9665569
174.7809538
302.6642015
366.3838349
318.870563
270.8306033
268.9271389
427.9209231
339.7949247
438.134577
305.5698681
358.1370385
257.0849137
126.4956594
-157.8994999
-399.1303534
-631.7824711
-880.0456247
-1156.648448
-1272.046566
-825.2943327
-5947.163737
-4775.24645
4184.38204
-11666.05934
-9626.70011
5229.950287
2818.607419
-8186.941646
-6603.741242
2456.604271
2289.208033
-4638.7665
-5019.205263
3022.352365
5456.395714
1008.038581
-1774.806787
3118.490878
7062.883959
2711.810244
1050.209424
3964.063261
7807.697137
19301.28218
18746.78903
-400.0971063
-10201.11178
-17766.57484
-19048.29724
-3934.230045
7073.77683
11839.282
13964.14216
14728.73112
14654.13872
13744.60495
12701.82272
11821.35866
11321.59899
11348.8823
13626.73426
7718.049465
-11207.00564
-19466.91644
-20657.82672
5961.121368
23123.66906
13577.06918
-22450.9176
21964.5094
-16085.56458
-19881.61406
10778.38586
-18272.41541
11748.22188
-16801.35725
6558.504209
-4292.571188
-4089.625283
-4920.823667
-5413.208822
-5865.205801
-6249.149342
-6583.333449
-6868.641586
-7027.386028
-7162.609327
-7257.016066
-7272.422732
-7241.693115
-7186.689766
-7143.949513
-7009.642772
-6801.89086
-6580.240409
-6329.953971
-6098.029728
-5857.665708
-5667.892482
-5518.457781
-5247.259626
-4953.279751
-4645.691458
-4361.343729
-4072.333494
-3715.84722
-3359.267576
-3038.321557
-2676.651442
-2346.896297
-1966.402499
-1628.138593
-1281.511042
-931.0992672
-603.5267503
-226.9148703
47.62824531
366.1014283
688.8682697
1037.484061
1433.596381
1831.538223
2313.114426
2565.271749
3026.145596
3715.990848
5623.729603
6936.629543
5093.786758
-1777.374351
-6475.341041
-1711.681116
16418.57309
15612.52424
-337.4045411
-13214.17013
-146.5441572
18109.84174
2881.891482
-10188.10982
12529.40475
8518.913116
-6345.770925
9319.186033
-107.5054181
-1107.384909
3893.063151
-1962.364722
2540.715321
-1194.310946
1220.928249
-520.717146
226.198269
332.7708202
-85.952438
-184.8640656
-11.53115708
27.22709641
22.28684143
32.02234861
-168.8727051
-3640.181207
-2210.947799
9249.112911
-11392.10285
-15762.50828
16092.69846
341.6343407
-18739.73809
3093.486964
18260.52355
5132.007361
-13347.25228
-8975.167803
1942.994673
9571.748267
-12503.2816
16932.23231
-10153.378
11451.88984
17720.76257
-21642.582
-13190.1053
26014.90949
1175.80749
5722.497293
8768.371068
-7517.851808
2227.457787
18598.80758
10117.07736
-2529.613658
3859.428451
13248.53217
11214.56603
1015.918587
954.9478136
7017.607708
6741.350411
1794.58098
1218.013546
3708.95204
2502.376651
1716.950932
2735.102675
1763.083099
2430.217476
1998.378116
1931.626595
1602.531636
1700.665312
1553.630908
1547.227788
1559.789528
1570.978443
1547.867315
1552.44022
1552.943793
1563.798913
1566.087836
1579.02003
1583.873264
1596.423074
1605.09866
1610.694181
1612.894719
1612.572156
1621.064097
1614.625329
1621.844183
1614.723487
1613.085658
1610.909336
1607.392626
1602.268076
1589.088937
1576.084745
1563.022833
1553.594286
1538.846852
1522.9694
1501.411742
1482.440831
1459.800059
1435.818007
1413.134422
1390.674808
1367.049162
1338.260381
1310.665196
1283.338097
1252.558145
1222.690817
1196.001602
1169.78101
1138.061627
1096.792107
1056.122595
1017.564132
980.2334886
952.8480903
926.4696296
891.827645
861.5915488
830.9609239
785.0754751
736.7008721
694.6354703
650.6364388
617.4890665
573.1609375
522.4748797
475.9148483
441.4496306
437.8294525
535.4821782
1183.301958
2032.065652
14039.10003
5276.924284
5726.515607
3456.696203
-798.7438922
11305.97785
-4997.119029
-2275.154095
-4619.440866
-3138.125097
48.24921802
-1099.277804
-873.6379306
-280.992758
-661.3396748
-411.2148769
-582.7866994
-526.29157
-571.2545772
-659.5135675
-683.0960215
-748.7475904
-792.7183384
-856.8138728
-917.8366724
-928.9476775
-946.3609733
-1000.468643
-1026.376042
-1063.685984
-1114.593736
-1138.892515
-1171.64152
-1204.421257
-1234.94386
-1268.54412
-1291.199522
-1310.162166
-1326.896197
-1349.613067
-1382.312414
-1394.048424
-1406.405667
-1422.792743
-1447.291386
-1468.359317
-1480.369056
-1492.011703
-1511.839213
-1544.950053
-1565.541224
-1576.303691
-1591.235305
-1608.228442
-1622.322488
-1621.144889
-1626.778337
-1635.926024
-1650.949819
-1643.575847
-1647.140737
-1656.284062
-1679.343367
-1680.228923
-1678.755178
-1671.484807
-1681.616325
-1685.549612
-1680.233706
-1666.737997
-1717.887857
-1729.741353
-1780.7944
-1746.825132
-1757.730079
-1733.503958
-1749.05762
-1732.283069
-1754.540887
-1742.232364
-1794.280259
-1812.117622
-1873.491263
-1902.81464
-1981.221325
-2045.092885
-2147.784792
-2265.595547
-2421.158668
-2600.213489
-2786.585363
-2976.110802
-3633.950812
-4093.707528
-4380.200434
-5504.340019
-5973.659657
-6923.360218
-7785.479833
-8452.555513
-6098.593019
-18498.65487
-14680.26081
16830.52875
-10624.42608
-5054.413541
-2128.286926
-6202.028154
302.934153
-4421.204881
840.3502361
-7093.339173
3901.027162
-2966.063616
2623.072816
-1315.755296
1580.485675
840.6642174
5.775826516
480.0774408
283.544584
272.839634
194.4694685
290.3922343
375.9347636
307.8373488
355.9255097
285.484006
369.8685864
269.2430009
165.0775137
-63.63751235
-263.8572996
-499.2912742
-716.5918839
-967.8705918
-906.8080019
965.2241062
-10338.8563
-7750.078226
11897.53115
-21844.65753
-17969.88422
15337.58698
9888.508993
-16544.53519
-12787.72962
9559.173058
8796.566847
-9592.560191
-11242.82157
10028.20691
14966.551
775.1248309
-6860.409461
6588.266903
15765.34821
658.9267412
-4532.339503
3604.844003
12736.81061
36060.26024
33778.57535
-9466.243129
-25818.42912
-38244.82314
-38684.69556
-4676.729169
16985.54681
25188.65139
28752.24427
30111.20909
29986.71769
28171.8866
26217.72813
24535.42417
23524.08073
23277.04816
28089.83394
16008.79434
-23543.18225
-38704.474
-41288.87171
14551.45276
48020.55681
28020.73677
-47048.76213
48479.41106
-29833.0562
-36447.53398
27404.07426
-35634.51827
31981.73
-33984.4449
20966.02216
-4210.311707
-2438.463222
-3730.24246
-4292.617011
-4790.709033
-5199.602228
-5568.366304
-5918.857557
-6164.651088
-6396.222286
-6592.93373
-6715.953193
-6800.929344
-6868.071649
-6987.949001
-6941.766551
-6725.290373
-6500.672439
-6327.94082
-6073.468909
-5821.890706
-5603.983047
-5629.466298
-5489.022338
-5300.778037
-4970.451938
-4714.821672
-4488.140355
-4102.048976
-3680.667329
-3384.991381
-2997.925778
-2670.330153
-2273.193289
-1937.599642
-1566.341143
-1173.585993
-844.375268
-479.7288918
-186.761202
153.7924225
475.8476981
842.9135647
1213.802816
1557.984476
2056.507936
2306.758729
2867.274775
3996.424812
7689.494052
10215.97384
6764.11568
-6970.248263
-16465.60729
-7224.954185
29648.41125
27972.77143
-4213.926069
-30311.70571
-3316.939743
34675.45174
2736.344048
-24641.26993
23760.0915
15166.85316
-16347.68087
17926.95952
-2226.275616
-3884.779598
7270.176583
-5133.938165
4923.12077
-3053.604798
2450.420374
-1251.870483
422.00005
707.5920671
-273.7634509
-292.3171066
-47.73140659
2.782739412
-48.9937587
4.440147427
-278.8855767
-7111.336496
-4373.951203
18935.99844
-22326.01012
-30943.3108
32405.74446
587.8661898
-36797.38921
5877.024799
34715.7255
9344.824523
-26630.37358
-18045.70665
2163.9261
18457.81967
-28666.30505
33679.89999
-26028.65676
20119.01421
36630.42948
-50349.59624
-35701.82901
52823.26891
-7410.113221
5675.39252
15098.47787
-27132.20401
-6804.524545
34445.91869
15635.8658
-17008.30836
-2381.518194
22736.50182
19744.28096
-6162.690978
-6199.650029
10907.51572
11571.5489
-1199.526333
-2123.094675
5404.322556
2585.278537
304.5455809
4276.504932
1104.075384
3696.790821
2465.478181
2728.869212
1781.524987
2327.82066
1869.565946
1869.750507
1961.178845
1954.335781
1886.517864
1875.670684
1856.513601
1853.590942
1838.05965
1839.359238
1835.934932
1837.291458
1836.167966
1833.916427
1828.099937
1820.010652
1822.752757
1804.678198
1804.307405
1790.988665
1781.920062
1774.93694
1766.01577
1756.154123
1737.856685
1721.855406
1706.948509
1696.778496
1680.565404
1664.137638
1642.103325
1620.977633
1595.910341
1570.199068
1546.308569
1521.240461
1494.513813
1464.184029
1435.619238
1406.284389
1370.872644
1336.457523
1306.761284
1277.993714
1242.914197
1192.852591
1139.912661
1087.844297
1037.836177
1015.276326
1011.568381
975.4668734
947.0335161
918.1090944
851.4016056
792.0028914
763.8360662
704.624466
667.8928428
619.2015941
567.4327584
516.2428293
468.7052907
465.8777164
579.0488671
1495.978749
2977.938897
29639.31528
10615.2934
11457.00219
7111.044683
-2564.562456
24335.12604
-12409.77488
-4290.605263
-10127.00798
-6402.534007
1523.910229
-2040.337689
-1490.865927
17.73496658
-1054.489885
-260.5177169
-786.0269482
-482.4000088
-606.6623024
-755.0715254
-729.9753321
-829.1157521
-878.6297708
-1008.597444
-1092.479673
-1017.160858
-993.9827239
-1110.593544
-1116.833114
-1148.670257
-1225.444232
-1239.294512
-1274.591229
-1305.923209
-1348.202548
-1387.190483
-1401.43569
-1419.864831
-1446.208571
-1472.97644
-1508.580576
-1517.159906
-1531.724931
-1557.350044
-1588.015959
-1607.622419
-1617.494089
-1635.933163
-1664.518681
-1699.531965
-1720.283833
-1731.422389
-1756.720698
-1777.724827
-1791.627839
-1791.015425
-1806.961933
-1821.21215
-1837.49964
-1832.018835
-1851.721256
-1872.535913
-1902.175231
-1900.587145
-1904.209364
-1911.616563
-1938.590492
-1948.970218
-1946.042487
-1923.615373
-2004.55165
-1990.183668
-2081.580915
-2060.629116
-2101.12015
-2080.946556
-2123.259115
-2124.023202
-2177.896923
-2170.612085
-2255.914032
-2290.659677
-2369.788383
-2390.905995
-2486.646564
-2570.337522
-2673.972573
-2761.272504
-2898.206429
-3029.827402
-3047.886276
-2978.23453
-4180.396963
-4412.422161
-3803.882264
-5618.029776
-5028.478466
-6038.750422
-6383.416065
-6386.267705
66.28416815
-26281.84189
-17213.4255
45883.11008
-13749.44519
-2483.757594
1879.450939
-9194.928214
4731.730192
-7822.573874
4328.922239
-15431.19287
9859.076177
-7600.642977
5973.904912
-3690.511114
3328.851256
1500.209847
-458.2132131
789.2947717
139.2190152
265.7589186
90.32540236
355.0514195
308.2713225
320.9990391
280.2119283
231.8278231
318.9478542
270.2046398
206.7580157
10.42249925
-149.2983843
-389.5591813
-620.3880184
-800.1079978
-396.8721988
4690.239672
-18980.30775
-13708.33728
27118.43803
-41550.53687
-34404.19806
35596.94516
24177.20876
-34074.94253
-25774.77261
24817.56887
22496.83948
-21075.69448
-25531.49268
25785.18875
34724.42307
-3042.939074
-19481.85949
14749.10951
34504.83729
-6981.141786
-17959.84767
4117.083041
23880.73
68917.14655
63122.1371
-28480.68718
-54955.91549
-75936.6068
-75330.34819
-4742.052538
36063.80794
49828.43933
55864.58112
58279.41345
58021.69653
54473.18588
50864.67254
47756.40793
45858.35397
45053.72363
55004.95692
31505.50294
-47675.21064
-75054.56537
-80663.75186
31648.09055
95535.61654
55159.87094
-96728.80631
100414.5011
-57716.38237
-68678.4343
58502.18672
-70269.95139
70667.4189
-69619.93086
48626.33947
-5736.60918
-342.6626473
-2607.021436
-3289.975708
-3830.679936
-4206.045354
-4535.952149
-4878.658331
-5147.529379
-5408.016656
-5649.831601
-5832.276911
-5993.462025
-6161.888369
-6501.724914
-6505.508326
-6115.148751
-5798.428896
-5775.244837
-5443.997451
-4899.292258
-4612.332376
-4989.34422
-5136.705146
-5131.548361
-4726.562293
-4550.87733
-4494.834575
-4085.65954
-3535.353546
-3335.941433
-2951.194067
-2691.97292
-2302.520855
-2004.629714
-1682.129552
-1303.481459
-980.1657066
-671.6175971
-414.1108048
-87.79107965
197.6979136
557.05459
892.2464256
1181.599798
1669.560194
1956.361855
2686.274275
4603.291943
11773.9974
16777.06217
10509.80703
-16478.48339
-35283.56567
-17940.99093
55106.68062
51853.2195
-11078.40286
-62533.51506
-9150.408594
66712.45102
2736.144161
-52298.81037
45680.83485
28153.27544
-35658.2421
34935.16367
-6208.681081
-9079.967062
14003.14205
-11290.57759
9704.568455
-6656.714893
4876.211227
-2695.361495
799.8427175
1446.508031
-627.0193372
-537.6399723
-239.5051381
29.13704822
-129.8455742
-12.604515
-392.3596576
-13771.6887
-8657.573275
37784.92532
-43169.31673
-59986.61194
63842.42277
1142.350855
-71031.39602
11341.10471
65816.10505
17373.48739
-51204.63067
-34519.01779
2634.48945
36253.62442
-59212.09172
66897.46517
-56073.49329
37312.87946
75192.67849
-104013.0264
-78579.32281
107959.2433
-24316.44775
7384.95579
31530.0798
-64634.0468
-24749.53905
68128.12211
29359.48438
-45846.58556
-15644.97761
42738.45514
38698.08665
-21314.79386
-22133.74455
18930.52795
21975.09849
-8457.826162
-10225.69858
8544.007519
2162.620169
-4455.908391
7383.443526
-2034.215935
5780.796079
2195.546126
3713.765193
1012.315996
3003.814232
1662.021649
1734.228225
2100.716841
2068.657017
1925.741161
1911.604197
1888.224779
1877.657609
1849.458591
1845.753782
1840.712289
1836.624304
1828.23063
1820.849384
1810.706936
1795.042942
1797.752278
1776.700371
1769.360612
1753.847495
1740.387368
1730.389778
1718.245996
1705.466874
1684.749775
1666.885196
1651.196943
1640.765595
1624.646798
1609.111386
1587.637816
1566.198381
1541.482009
1516.607353
1493.260976
1467.119447
1440.949529
1413.238089
1385.245537
1355.538562
1319.661357
1286.477542
1256.648654
1224.835462
1188.937072
1135.494598
1071.288121
995.6814398
917.5632491
906.5874765
973.3178521
935.5496926
915.5780677
910.4431949
812.4989519
728.8780385
740.4455082
659.3989919
634.3121771
580.6925458
528.768976
485.6681536
429.2944745
420.5776098
536.2962183
1665.79188
4195.208011
44137.96737
20361.01905
22210.95148
14076.68512
-6462.052222
50272.22925
-27893.40154
-7600.939227
-20960.18882
-12716.64875
5443.715303
-3990.60448
-2746.994972
964.0533219
-1839.307771
272.8621447
-1124.080852
-209.2351212
-512.9411454
-802.2731787
-640.1640171
-807.0572761
-839.8918683
-1131.076163
-1272.97501
-951.1649288
-810.8801521
-1118.784142
-1067.667204
-1068.51834
-1196.828036
-1175.612831
-1234.687494
-1244.223257
-1292.207273
-1340.820233
-1345.16064
-1360.161689
-1393.348517
-1420.743479
-1454.376985
-1462.424691
-1480.819428
-1508.86681
-1538.6761
-1557.454695
-1566.034439
-1589.837685
-1623.058227
-1651.967787
-1673.431181
-1686.627463
-1719.162265
-1738.029601
-1750.510081
-1754.093994
-1777.395247
-1791.621007
-1808.322877
-1807.125308
-1840.344611
-1862.620756
-1892.540532
-1892.488562
-1898.995441
-1914.08329
-1952.364518
-1963.57956
-1951.229467
-1890.329822
-2004.359458
-1989.142624
-2108.418759
-2078.636287
-2139.031575
-2127.165988
-2182.11421
-2174.407616
-2241.769505
-2236.963659
-2330.127943
-2346.410637
-2422.35157
-2431.583532
-2516.51221
-2574.189478
-2650.598873
-2691.332464
-2762.219869
-2758.042859
-2440.574265
-1984.079558
-4626.578754
-4278.021295
-1762.473897
-5944.009153
-3140.545605
-4957.910328
-4872.430465
-4225.468102
9670.430862
-43798.01463
-25892.78369
98023.78556
-22683.23188
-310.0321884
8684.039037
-17147.23752
13557.46361
-15572.48787
11964.23143
-32842.93124
22519.91218
-17364.37484
13181.49557
-8779.256356
6971.392597
2711.112849
-1495.598458
1415.570683
-77.44909488
366.3156321
-112.8848965
462.5311455
179.847157
400.5014447
205.653485
197.698338
212.3068221