/*--------------------------------*- C++ -*----------------------------------*\
| =========                 |                                                 |
| \\      /  F ield         | OpenFOAM: The Open Source CFD Toolbox           |
|  \\    /   O peration     | Version:  2212                                  |
|   \\  /    A nd           | Website:  www.openfoam.com                      |
|    \\/     M anipulation  |                                                 |
\*---------------------------------------------------------------------------*/
FoamFile
{
    version     2.0;
    format      ascii;
    arch        "LSB;label=32;scalar=64";
    class       volScalarField;
    location    "1000";
    object      k;
}
// * * * * * * * * * * * * * * * * * * * * * * * * * * * * * * * * * * * * * //

dimensions      [0 2 -2 0 0 0 0];

internalField   nonuniform List<scalar> 
162063
(
0.1614971648
0.1247099653
0.09368221024
0.06845039121
0.04885166794
0.03416719065
0.02370685759
0.01659360581
0.01197737699
0.009177727874
0.007639734871
0.00702523333
0.007169661818
0.008252407661
0.01095038602
0.01607645354
0.02338520132
0.03104420903
0.03673339866
0.03929367392
0.03902756106
0.03757787691
0.03698273344
0.03889227154
0.04434251764
0.05480190135
0.07189551149
0.09733665719
0.1334166011
0.1810282136
0.2418795154
0.3155579392
0.4012361473
0.4967121177
0.5972695245
0.7020465508
0.8068841826
0.9097651185
1.011159995
1.10791968
1.202169338
1.291893817
1.376862809
1.458853606
1.535235937
1.609018235
1.678935334
1.744124555
1.806546351
1.863078794
1.915986652
1.96425804
2.006426199
2.045120866
2.077654114
2.105932589
2.129204747
2.145194045
2.157135
2.162996294
2.164613872
2.162484769
2.154351524
2.143413053
2.127510501
2.107597846
2.084477792
2.055842098
2.024874828
1.98989987
1.951511484
1.910759955
1.866054599
1.819591533
1.770003079
1.717566701
1.662798565
1.60478022
1.545209933
1.483483034
1.420170313
1.35677789
1.29366565
1.231108186
1.167931772
1.105138758
1.042723409
0.9807276368
0.9198928701
0.8593055063
0.7995951672
0.7404286291
0.6819023158
0.6248638485
0.5685595815
0.5139027681
0.4609415012
0.4100443792
0.3624060277
0.3178228144
0.2774446441
0.2403596073
0.2062018082
0.1752571467
0.1473029971
0.1224684994
0.1006933989
0.08177966798
0.06562805904
0.05190763346
0.04040419789
0.03089963459
0.02314774647
0.01698156854
0.01218447087
0.008560276446
0.005924925014
0.004088428573
0.002864778663
0.00210292177
0.001666708774
0.001454438091
0.001393326245
0.001437428675
0.001562609943
0.001753435986
0.002014418402
0.00235020043
0.002765321216
0.003286402564
0.003928220893
0.004722446406
0.00570382968
0.006882988888
0.008332939961
0.01007714804
0.01216668898
0.01466259693
0.01756264264
0.0209699496
0.02486730675
0.02924484073
0.03413660243
0.03939800754
0.04507786576
0.05101065183
0.05701867998
0.0631353803
0.06917357354
0.07525246197
0.08126508205
0.08706317309
0.09277202786
0.0981559143
0.1033547958
0.1083411957
0.1129738239
0.1174894115
0.1216791597
0.1256797948
0.1295154623
0.1329926245
0.1364132088
0.1395741084
0.1425795471
0.1454944251
0.1480666199
0.1506520933
0.1530543042
0.1553060005
0.1575222969
0.1594369674
0.1613669946
0.1631847953
0.1649263391
0.1667627294
0.1684159997
0.1701688094
0.1719089399
0.1735542122
0.1753410919
0.1769785625
0.178718404
0.1804912303
0.1821363815
0.1839474859
0.1856078104
0.1873415439
0.1891069792
0.1906789986
0.1924068536
0.1939777218
0.1955656275
0.1972194283
0.1986264182
0.2002298577
0.2017186677
0.2032364401
0.2049156952
0.2062616905
0.2078792825
0.2093848459
0.2108589286
0.2124708788
0.2138018823
0.215323013
0.2167655485
0.218101724
0.2195785184
0.2207730529
0.2221115436
0.2234050616
0.2245483288
0.2258625715
0.2269322666
0.2281223435
0.2293162196
0.2303143022
0.231500481
0.2324707011
0.233523022
0.2346232694
0.2354796333
0.2365462179
0.2374310969
0.2383579935
0.2393708676
0.2400916495
0.2410387001
0.2418327348
0.2426163593
0.2435072791
0.2440275509
0.2447331868
0.245261068
0.2456292935
0.2459613919
0.2458430832
0.2456855869
0.245339361
0.2450004272
0.244469775
0.2441866755
0.2441258533
0.2439911024
0.2441065878
0.2440836897
0.2440754756
0.2441833869
0.244044817
0.2440675931
0.2439144746
0.2436964804
0.2436248521
0.2432474284
0.2430166342
0.2426646093
0.2422061975
0.2419374551
0.2413220385
0.2408334982
0.2402723267
0.2395676543
0.2391037699
0.2382670335
0.2375444498
0.2368017837
0.2358909767
0.2352057666
0.2342068534
0.2332854204
0.232392845
0.2313072478
0.2304255542
0.2292864822
0.2281857165
0.2271578335
0.2259147132
0.2248549324
0.2236039154
0.2223582048
0.221225461
0.2198545968
0.2186478242
0.2173058196
0.2159238563
0.2146886981
0.213200669
0.2118627002
0.2104386068
0.2089511677
0.2076477227
0.2060862294
0.2046639907
0.20322068
0.2016925492
0.2004325262
0.1989017921
0.1975310889
0.1962155852
0.1948327843
0.1936656874
0.192324012
0.1910887338
0.1899137361
0.188686593
0.1875852155
0.1864085486
0.1853184195
0.1843385068
0.1832713498
0.1823719647
0.1813149092
0.1801762999
0.1790357948
0.177684582
0.176366917
0.1749041367
0.1733296385
0.1717519016
0.1698662913
0.1679025339
0.1656793979
0.163139955
0.1604416591
0.1571822389
0.1535824567
0.1494607596
0.144636535
0.1393131191
0.1329617551
0.1258216428
0.117737571
0.1085559537
0.09857659231
0.08758162351
0.07611918977
0.06467052742
0.05368237999
0.04385978576
0.03617376471
0.03177490236
0.03062524095
0.03297015847
0.03839104771
0.04526559187
0.05133845847
0.05482606301
0.05522262967
0.05310594907
0.04978110121
0.04632598135
0.04360480259
0.04209898906
0.04186841326
0.04285452189
0.0448795159
0.04793325921
0.0520911963
0.05744760202
0.0644313587
0.07332225242
0.08466158174
0.09905651699
0.1168688726
0.1389847753
0.1656941729
0.1973091567
0.233967821
0.2746018624
0.3186083744
0.3641787462
0.4099528228
0.4550995846
0.4988538404
0.5401663741
0.5757532823
0.6053538306
0.6286620433
0.6458378095
0.6572889933
0.6623966205
0.6620116594
0.6552680243
0.6425655773
0.6240490276
0.5989147303
0.568530206
0.5324955705
0.491527047
0.4469559648
0.3984720351
0.3485972096
0.298426067
0.2494563716
0.2036295919
0.09123828943
0.06926758674
0.05122728263
0.03693897287
0.02611296807
0.01818158847
0.01263730461
0.008919964977
0.006525818055
0.00507836361
0.004282104488
0.003962594283
0.00404290057
0.004613225078
0.005998504975
0.00858015772
0.01224507844
0.01611455191
0.01903420525
0.02039769934
0.0203242225
0.0196015767
0.01922212578
0.01999101059
0.0224614796
0.02732164953
0.03537422345
0.04746985103
0.06503319696
0.08879722152
0.1204715851
0.1604288526
0.2090433504
0.2658947153
0.3285193937
0.3968575041
0.468229991
0.5411572841
0.6154217615
0.6881802503
0.760713991
0.8310811774
0.8986915356
0.9649195654
1.02703998
1.087854047
1.145984031
1.200482128
1.253436897
1.30160736
1.34730838
1.389647727
1.426597939
1.461307779
1.490687323
1.516613024
1.538809143
1.55446896
1.567398548
1.574956339
1.578968467
1.580275132
1.575815802
1.569551957
1.55893561
1.544658163
1.528439907
1.506605966
1.483448559
1.45686955
1.426960152
1.395791093
1.360507321
1.324247874
1.285661049
1.244162757
1.201569586
1.155741525
1.109202726
1.061003274
1.011075165
0.9621667059
0.913190019
0.8654868155
0.8171742788
0.7694090778
0.7220536322
0.6752596501
0.6298402592
0.5850082808
0.541053665
0.4978076021
0.4553936799
0.4145570157
0.3746781512
0.3363814908
0.299650992
0.2647807948
0.2325652607
0.2027905318
0.176017851
0.1516586559
0.1294445693
0.1095322358
0.09171010455
0.07601692101
0.06235701407
0.05056299088
0.0405436491
0.03206478674
0.02497988973
0.01913979929
0.01437131196
0.01058460766
0.007627715138
0.00538226103
0.003737466954
0.002577506455
0.00178997723
0.001287642211
0.0009882774522
0.0008275373397
0.000761866057
0.0007622057538
0.0008103850728
0.0008962501114
0.001019776542
0.001181478114
0.001382976864
0.001636740385
0.00195083388
0.002341235027
0.002829596365
0.003417932175
0.004152231356
0.005045570441
0.006133876311
0.007453623201
0.009017990632
0.01089721296
0.0130959425
0.01562686664
0.01853040073
0.02173388298
0.02528529684
0.0290986323
0.03309711191
0.03731477602
0.0416034101
0.0460393389
0.05052903474
0.05495375146
0.05938074611
0.06357704236
0.06769408204
0.07169887053
0.07548110405
0.07921379127
0.08271088765
0.08608278252
0.08933068961
0.09229348104
0.0952116172
0.09790443969
0.1004536123
0.1029223524
0.1050764083
0.1072282607
0.1091783836
0.1109621065
0.1126838686
0.1141071173
0.1155239719
0.1168308411
0.1180294481
0.1192892628
0.1203519215
0.1214884446
0.1225868512
0.1235891539
0.1247000578
0.1256684316
0.1267067442
0.1277700452
0.128706714
0.1297855948
0.1307220879
0.1317130129
0.1327286955
0.1335679207
0.134534944
0.1353637266
0.1362032687
0.1371039142
0.1377939609
0.1386622177
0.1394386821
0.1402438419
0.1411679814
0.1418493241
0.1427284893
0.1435355135
0.1443130904
0.1452202713
0.1458946381
0.1467376084
0.1475261128
0.1482308731
0.1490672704
0.1496643021
0.1503936334
0.1510955369
0.1516732366
0.1524097774
0.1529400781
0.153586277
0.1542488747
0.1547521463
0.1554328658
0.1559371572
0.1565245594
0.157166828
0.1576045384
0.1582419854
0.1587313869
0.1592646282
0.1598908107
0.1602710247
0.1608722948
0.1613575623
0.1618330867
0.1624186309
0.1626824939
0.1631094433
0.1633956181
0.1635389992
0.1637171555
0.16349525
0.1632319757
0.1628016014
0.1624541139
0.1619356622
0.1616890068
0.1616320618
0.1615120825
0.1616121154
0.1616061779
0.1616456972
0.1617972505
0.1617520043
0.1618660919
0.1618328609
0.1617765728
0.1618667731
0.1616941937
0.1616766751
0.1615675786
0.1613892813
0.1613951269
0.1611100552
0.1609658254
0.1607736399
0.160478437
0.1604078241
0.1600214522
0.1597532989
0.1594814754
0.1590826878
0.1588897728
0.1584359812
0.158069205
0.1577385894
0.1572569285
0.1569662703
0.1564659758
0.1560179425
0.1556438019
0.1550963845
0.1547219938
0.1541925169
0.1536811912
0.153274198
0.1526794716
0.1522433957
0.1516953094
0.1511260378
0.1506863271
0.1500477515
0.1495424698
0.1489670221
0.1483469677
0.147879906
0.1471996407
0.1466301635
0.1460447323
0.1453887126
0.1449317923
0.1442539237
0.1436862685
0.1431424581
0.1425244363
0.1420862758
0.1414742017
0.1409411973
0.1404486805
0.1398600882
0.1394442862
0.1388472557
0.1382821068
0.1377856685
0.1371655343
0.1365827398
0.1358055032
0.134928379
0.1340310407
0.1328872135
0.131717072
0.1303443793
0.1287864406
0.1271742591
0.1251888985
0.1230822779
0.1206685498
0.1178912864
0.1149026982
0.1113334375
0.107436817
0.1030562787
0.09806434758
0.09269449064
0.08653174226
0.07988838449
0.07272657804
0.06493751137
0.05688146153
0.04851919337
0.04045902188
0.03303094063
0.02656163062
0.0214804482
0.01783440976
0.0160779351
0.01605299337
0.01786336979
0.02116689794
0.02509099385
0.02845779366
0.03034639857
0.03051686205
0.02931212571
0.02746524018
0.02553316961
0.02400811639
0.02314056886
0.02293746314
0.02342322575
0.02445968264
0.02606549353
0.02829287485
0.03115216907
0.03492669879
0.03975744086
0.04594901087
0.05389952943
0.0638283906
0.07632513892
0.09171411624
0.1102517749
0.1322266906
0.1571902079
0.184878892
0.2143162552
0.2448948221
0.2755127895
0.3061953118
0.3362392408
0.3622776122
0.384863203
0.403134946
0.4172282054
0.4270621421
0.4320229873
0.4329987489
0.4289788504
0.4203062063
0.4071836988
0.3889674355
0.3668164313
0.3405331379
0.3109305285
0.2791011473
0.2452007297
0.2111503393
0.1777466636
0.1460041736
0.1170750699
0.0490797926
0.03692567208
0.02710773939
0.01945501528
0.01373865332
0.009596219439
0.006721916039
0.004798351425
0.003555507261
0.002798178395
0.002375314151
0.00219814984
0.002229643354
0.002512355483
0.003200705063
0.004473318441
0.006278029757
0.008196519917
0.009665476153
0.01037849137
0.01038324891
0.01005467353
0.009876288862
0.01024035505
0.01143184996
0.01378269409
0.01768292124
0.02352805673
0.03203022178
0.04364718879
0.05932925619
0.07954668011
0.1046713469
0.1350344694
0.1694210257
0.2081751573
0.2500952579
0.2942469766
0.3404964309
0.3869529144
0.4343090776
0.4811733181
0.5269806065
0.5724806821
0.6157026728
0.6584410253
0.6997333301
0.7388273543
0.7771871197
0.8123956885
0.8461339333
0.8778387071
0.9058290251
0.9324587472
0.9552526621
0.975685663
0.9935100586
1.00650261
1.017694788
1.024922176
1.029586222
1.032294331
1.030531994
1.027566941
1.021296634
1.012365461
1.002029706
0.9873745165
0.971915482
0.9538829431
0.9334108289
0.912082623
0.887662791
0.8626812977
0.8360876094
0.8074372575
0.7782043286
0.7467201819
0.7148136663
0.6818373829
0.6474687883
0.6143527971
0.5813388559
0.5495046508
0.5174007375
0.4854766746
0.4538978023
0.4228106834
0.393012358
0.3639554571
0.3354050301
0.3074236684
0.2801262598
0.2541478226
0.2289716018
0.204884054
0.1819435297
0.1603288984
0.1405059582
0.1222968874
0.1059629184
0.09113472329
0.07766267148
0.06563676133
0.05490830891
0.04549440591
0.03732064696
0.03027272398
0.02429034196
0.01923014343
0.01500373963
0.01152192649
0.008677522967
0.006417266863
0.004645899955
0.003294814316
0.00229866236
0.001588761008
0.001098174607
0.0007796441777
0.0005844301901
0.0004725986971
0.0004193228153
0.000406743417
0.0004222417576
0.0004593385983
0.0005172561528
0.0005950682059
0.0006928587693
0.0008165785044
0.0009696980551
0.001160783431
0.001402135582
0.001691554741
0.002056099253
0.002501325041
0.003049432441
0.003716158624
0.004513075079
0.005483831056
0.006635707201
0.00797800884
0.009543041172
0.01129979761
0.01328135835
0.01545292743
0.01778168429
0.0202939819
0.02290492243
0.02566130048
0.02851086714
0.03137785924
0.03431633583
0.03718711695
0.0400632701
0.04291653644
0.04564852203
0.0483856748
0.05097435717
0.05348765585
0.0559289478
0.05815823954
0.06036891909
0.06240765059
0.06433707552
0.06620636873
0.06781949089
0.06942905444
0.07086979402
0.07217312441
0.07343397162
0.07445720934
0.07549670816
0.07643677073
0.077277465
0.07815088342
0.07885190955
0.07960047529
0.08030438003
0.08092065193
0.08160990625
0.08217302991
0.08278701093
0.08340364325
0.08391730735
0.08452849033
0.08502621455
0.08555440891
0.08609653982
0.08649234803
0.08698077464
0.08735611234
0.08773490258
0.08815466436
0.08841203019
0.08879729732
0.08911248528
0.08944047569
0.08985534279
0.0900876985
0.09046253454
0.09078510741
0.09108524723
0.09148086064
0.09170705786
0.09205657421
0.09236966691
0.09262292065
0.09297220761
0.09315041917
0.09342443772
0.09368355891
0.09385426215
0.09413922308
0.09428164629
0.09450822154
0.09475581734
0.09489654813
0.09517224639
0.09533027025
0.09554990957
0.09581688856
0.09594346981
0.09621643421
0.09639296144
0.09660544231
0.09689495105
0.09701661489
0.09729615458
0.09750192389
0.09770935077
0.09800487321
0.09808118144
0.098279125
0.09838022086
0.09838807657
0.09842999848
0.09819797188
0.09793909402
0.09757964779
0.09736450596
0.09696247667
0.0968119107
0.09678733694
0.09673010631
0.09683644936
0.09687103063
0.09695101848
0.09712169178
0.09716249676
0.09732920414
0.09740454269
0.09747379338
0.09765625531
0.09766780203
0.09779873706
0.09787404916
0.09791270101
0.09809214773
0.09808131829
0.09818448463
0.09826396671
0.09827931208
0.09846126733
0.09842613794
0.09848445774
0.09854801637
0.09852710852
0.09866248725
0.09861733802
0.09864005272
0.09869688353
0.09865056001
0.09874936922
0.09870195479
0.09869457029
0.09874639835
0.09867634202
0.09873720474
0.09868514919
0.09864735874
0.09869161428
0.098595021
0.09861799734
0.09855699235
0.09848117835
0.09850720516
0.09837532253
0.09834623595
0.09826101619
0.0981368142
0.09812882603
0.09794576609
0.09784476457
0.09772205556
0.09753562474
0.09749726967
0.09726443291
0.09710590005
0.09694695189
0.09670588112
0.09658922445
0.09631722437
0.09609214441
0.09588756323
0.09557063586
0.09538302353
0.09503858512
0.09468897206
0.09435114463
0.09387459212
0.0934474934
0.09284188242
0.09214619049
0.09141636216
0.09044540104
0.08943912789
0.08821934793
0.08681874134
0.08533986162
0.08351789688
0.08156759401
0.07933256477
0.07678933578
0.07406322116
0.0708729262
0.06743722585
0.06365650843
0.05948547267
0.05511577746
0.05030216244
0.04531350986
0.04018461518
0.03493544371
0.02983144461
0.02487171332
0.02036268077
0.0164288998
0.01320360616
0.01076187352
0.009056915621
0.008306065462
0.008450754229
0.009521892459
0.01134777822
0.01346619239
0.01528072736
0.01630823616
0.01642099687
0.01579876897
0.01481483403
0.01377161581
0.0129245533
0.01241884293
0.01226203599
0.01247339085
0.01298044151
0.01379233623
0.01493102425
0.01640745734
0.01836025168
0.02087191249
0.02409572776
0.02825472112
0.03346936296
0.0400821586
0.04829063727
0.05828140117
0.07027521227
0.08407555496
0.09962044405
0.1163679789
0.1342453713
0.1522446085
0.170709924
0.1893496023
0.2055604669
0.2200931453
0.2322268436
0.2417788626
0.2486948277
0.252526177
0.2537985499
0.2517776918
0.2467686541
0.2387687049
0.2275319504
0.2137535938
0.1973126521
0.1789011189
0.1592819329
0.1387069073
0.1183043506
0.098591208
0.08015310725
0.06361142194
0.02551758142
0.01914323332
0.01403525657
0.01008517398
0.007151335431
0.005030782618
0.003558871164
0.00256890987
0.001923623884
0.00152540853
0.001298305564
0.001197418772
0.001204188858
0.00133765063
0.001670310413
0.002285564577
0.003159869747
0.00409607167
0.004822893787
0.005188305219
0.005212219977
0.005072054376
0.005002940375
0.005194281374
0.005790609521
0.006954189497
0.008882693555
0.01174677086
0.01590109434
0.02159565927
0.02927973448
0.03928411207
0.05176527137
0.06717651082
0.08480898148
0.1050447311
0.1274924972
0.1515661418
0.1772665456
0.2035393081
0.2307669194
0.2581218761
0.2852112864
0.3124290866
0.3385348954
0.3645565906
0.3898982547
0.4140549808
0.4379276589
0.459971975
0.4812347826
0.5013520098
0.519293559
0.5365303663
0.551381567
0.564833338
0.5767241739
0.58554417
0.5933490582
0.5986168137
0.6022909907
0.6047805764
0.6043224495
0.6031934697
0.5999186605
0.5949702111
0.5891942699
0.5805797349
0.5715707305
0.560913321
0.5487139195
0.5360413987
0.5213635575
0.5064356063
0.4905417552
0.4733932732
0.4560058487
0.4372267139
0.4182240743
0.3985515179
0.37783122
0.3582288222
0.3387195599
0.3201608027
0.3014264129
0.2825084858
0.2637020457
0.2452248059
0.227783519
0.2109905585
0.1942799787
0.1778594571
0.161868632
0.1468066611
0.132259992
0.1182900076
0.1050181133
0.09258922093
0.08119097297
0.07072502245
0.06133157924
0.05277919083
0.04500454623
0.03806540275
0.03187178601
0.02643636938
0.02171382478
0.01763719305
0.01417237115
0.01123836495
0.008785557929
0.006763802264
0.00510978901
0.003793757561
0.002759000328
0.001966485314
0.001378880714
0.0009565402618
0.0006596503158
0.0004643826273
0.0003422244973
0.0002687657328
0.0002305715995
0.000216983994
0.0002196529879
0.0002346802415
0.0002612660699
0.0002983192816
0.0003454568271
0.0004054317259
0.0004795996364
0.0005724651326
0.0006913073937
0.0008320864679
0.001011279945
0.001229610247
0.001501359686
0.001830194145
0.002223129075
0.00270725561
0.003287472783
0.003964128587
0.004762097545
0.00566592471
0.00669497013
0.007837625124
0.009080230424
0.01043902696
0.01187124862
0.01340571675
0.01501653231
0.01666334329
0.01838070466
0.02009141755
0.02183420524
0.02359074021
0.02529899215
0.02703410726
0.02869377362
0.03032037403
0.03191554096
0.0333850485
0.03485240686
0.03621569278
0.0375131288
0.03877643771
0.03987053388
0.04096456086
0.04194570167
0.04283449049
0.04369652026
0.04439668361
0.04510759658
0.04574587019
0.04630989111
0.04689047615
0.04734587269
0.04782759675
0.04827375736
0.0486522698
0.04907534614
0.04940456696
0.04976359764
0.05011957842
0.05039885456
0.05074119793
0.05100125592
0.05127844559
0.05156182395
0.05173979466
0.05197626601
0.05213224324
0.05228720775
0.05246780632
0.05253587341
0.05268584763
0.05278590103
0.05289039361
0.05305111755
0.05308847858
0.05321743636
0.05331140035
0.05338889409
0.05352792852
0.05355616495
0.05366366258
0.05374898735
0.05379559432
0.0539036052
0.05390220398
0.05396091556
0.05401122476
0.05400482312
0.05407001661
0.05404609187
0.05407440059
0.0541191894
0.05410183878
0.05417388312
0.05417744968
0.05422038136
0.05429595308
0.05428757269
0.05437133529
0.05440002672
0.05445366329
0.05455906912
0.05456535971
0.05466927529
0.05473281504
0.05480138182
0.05492821563
0.05492673084
0.05500178616
0.0550170336
0.05497707399
0.05496365113
0.05479300476
0.05460730127
0.05437224685
0.05429219046
0.05402401094
0.05395518507
0.05395615878
0.05394413729
0.05403475251
0.05408431032
0.05416718155
0.05431010544
0.05437994664
0.05453149653
0.05463351818
0.05473740389
0.05491477968
0.0549950928
0.05515275701
0.05528101363
0.0553923641
0.05559783457
0.05569693656
0.05587190425
0.05603550101
0.05616294676
0.05639623462
0.05649868232
0.05666254075
0.05683253509
0.05695324626
0.05717575585
0.05728765945
0.0574448292
0.05762599472
0.05774424092
0.05795758646
0.05807884075
0.05822751704
0.05841554196
0.05852568211
0.05872257953
0.05884542969
0.0589778508
0.05916475778
0.05925645277
0.05942713157
0.059540583
0.05964311702
0.05981445649
0.05987388782
0.06000251651
0.06008918905
0.06014605802
0.06028121327
0.06028746281
0.06034895517
0.06038874512
0.06037922734
0.06046963945
0.06041283761
0.06040190879
0.06038118121
0.06029034131
0.06027805265
0.06014031062
0.06002640718
0.05991716021
0.05971476446
0.05958717381
0.05934256829
0.05908701154
0.058825299
0.0584430606
0.05809134989
0.05760292231
0.05704355122
0.05645280175
0.05567723812
0.05487085343
0.0539011397
0.05279559473
0.05162932222
0.05021526454
0.04871099846
0.04701108037
0.04510735429
0.04309487276
0.04078782894
0.03835138485
0.03573431254
0.03292655506
0.0300664487
0.02701363115
0.0239529276
0.02091401353
0.01792048835
0.01511374325
0.01251220658
0.0102068446
0.008253045722
0.006687269735
0.005497501557
0.004667730254
0.004309907836
0.004404711531
0.004967572632
0.005916795336
0.007020013166
0.007978202829
0.008541499152
0.00863177035
0.008333736634
0.007830546552
0.007281886308
0.006821306778
0.006531209919
0.006420357878
0.006501944754
0.006739359201
0.007136835261
0.00770290888
0.008443831897
0.009425618819
0.01069148972
0.01231683561
0.01441776926
0.01705543354
0.02041075081
0.02459105735
0.02970571957
0.03588472701
0.04303976645
0.05116188739
0.05994921546
0.06958265115
0.07915855359
0.08919776434
0.09961644859
0.1085495649
0.1168023375
0.1238936758
0.1295098118
0.1336448615
0.136099813
0.1371255747
0.1362395486
0.1337056506
0.1293130679
0.1231923734
0.115554529
0.1063288761
0.09606575394
0.08520502895
0.07386537115
0.0626787665
0.05196511913
0.04203733584
0.03320638464
0.01292432565
0.009706368885
0.007133269756
0.005148800975
0.003675146279
0.002607436951
0.001863098383
0.001358387932
0.001025828488
0.0008177252043
0.0006963543971
0.0006392201943
0.0006368062287
0.000697208175
0.0008539558258
0.001145650184
0.001561941273
0.002011120815
0.002364354026
0.002547435728
0.002569215472
0.002512807781
0.002491916855
0.002596441769
0.002898463497
0.003477109689
0.004436396008
0.005842362568
0.007875505969
0.01067118628
0.01442152053
0.01933317904
0.02542411942
0.03307562415
0.04181427921
0.051916178
0.06334638882
0.07570176788
0.08903537063
0.1028130557
0.1172444159
0.1318882115
0.1465179138
0.1613335543
0.175637765
0.1899736293
0.2040086302
0.2174463755
0.2307874079
0.243155868
0.2551325205
0.2665027501
0.2766934785
0.286536953
0.2950617096
0.3028313511
0.3097535187
0.3149555491
0.3196257892
0.3228613021
0.3252161901
0.3269240812
0.3269446724
0.3266199579
0.3250719806
0.3225971137
0.3196840662
0.3151490617
0.3104349915
0.3047882844
0.2982812166
0.2915311175
0.283635104
0.275638803
0.2671176999
0.2579100154
0.2486137984
0.2385353915
0.2283306969
0.2177041998
0.2063303551
0.1958119413
0.1853419872
0.1755322967
0.1655760098
0.1552664823
0.1448876368
0.1347003384
0.1252714722
0.1163292639
0.1072157505
0.09818507664
0.08938746797
0.0811942086
0.07328518464
0.0656145201
0.05832597662
0.05153616482
0.04528991339
0.03953982548
0.03436335606
0.02962409627
0.02530472606
0.0214415579
0.01798470232
0.01494507577
0.01229796849
0.01000758798
0.008056311243
0.006400783507
0.005014514463
0.00387049116
0.002933890064
0.002185556237
0.001596315669
0.001143243401
0.0008057197247
0.000561443853
0.0003867538474
0.0002708325603
0.0001972053013
0.0001511357208
0.0001258043581
0.0001150165654
0.0001134458682
0.0001188693049
0.0001306944727
0.0001479964827
0.000170382583
0.0001990936361
0.00023455711
0.0002791200443
0.0003371834966
0.0004046953787
0.0004918431703
0.0005972761497
0.0007305260846
0.0008899826219
0.001079270834
0.001315447659
0.001601442169
0.001931982092
0.002326084883
0.002774195018
0.003285810107
0.003859039794
0.004487844425
0.005179865477
0.005914859933
0.006710026969
0.007553156397
0.008423783831
0.009341777972
0.01026788757
0.01122243055
0.01219562631
0.01315399012
0.01413963075
0.01508997363
0.0160294587
0.01695811574
0.0178212557
0.01868880604
0.01950134605
0.02027978399
0.02104224357
0.02170723147
0.02237452521
0.02297670441
0.02352471213
0.02405791134
0.02449345055
0.02493491945
0.0253312782
0.02568037844
0.02603787266
0.02631669352
0.02660921783
0.02687834191
0.02710334132
0.02735341451
0.0275433553
0.02774917404
0.0279508972
0.02810344069
0.02829257991
0.02842999728
0.02857621304
0.02872502159
0.028807323
0.0289229543
0.02898829055
0.02905136638
0.02912905979
0.02913734873
0.02919293674
0.02921704811
0.02924205447
0.0293000652
0.02928347908
0.02932016477
0.02933583658
0.02934075563
0.02938159898
0.02935689712
0.02937814434
0.02938701918
0.02937316882
0.02939485984
0.02935274668
0.02934464476
0.02933204415
0.02928637723
0.02928129284
0.02922481531
0.02919672628
0.02917829813
0.02912662291
0.02912940818
0.0290966695
0.02908644192
0.029095896
0.02905932272
0.02907512702
0.02906196093
0.02906381547
0.02909621741
0.02907498307
0.02910858707
0.02912183654
0.02913940322
0.02919093495
0.02917378116
0.02919994552
0.02919107572
0.02914867301
0.02912641138
0.02902261976
0.02891147304
0.02877927717
0.02877969406
0.02861261138
0.02858949252
0.02859931847
0.02860519532
0.02866880097
0.02871039109
0.02877255047
0.0288697242
0.02892879184
0.02903491369
0.02911588519
0.02920028378
0.02932719022
0.02940287818
0.02952335946
0.02962922827
0.02972786595
0.02988455244
0.02998753654
0.03013459178
0.03027501817
0.03039576829
0.03057701718
0.03068551817
0.03083020267
0.03097938977
0.03110190252
0.03128413836
0.03140404284
0.03155113661
0.03171281719
0.0318389973
0.03202139188
0.03215044594
0.03229643079
0.03246577445
0.03258936492
0.03276493173
0.03289624186
0.03303337644
0.03320287913
0.03331429096
0.0334729906
0.03359614597
0.03371221064
0.03386956518
0.0339565192
0.03408519626
0.03418609593
0.03426716615
0.03439524175
0.03444012219
0.03451817609
0.03457980783
0.0346085677
0.03469801203
0.03469115299
0.03471023617
0.03471928094
0.03467911823
0.03468457002
0.03460379504
0.03453439706
0.03446321892
0.0343282814
0.03423466571
0.03406143719
0.03387947965
0.03368961008
0.03341632658
0.03315947284
0.03281263862
0.032419794
0.03200536875
0.03147184939
0.03091913636
0.03026287504
0.02952280573
0.02874661839
0.0278199577
0.02684348139
0.02575399905
0.02455103625
0.02329493759
0.0218770227
0.02040454907
0.01885279205
0.01722319423
0.01559616222
0.01389479106
0.01222557058
0.01060291686
0.009036689976
0.007588574045
0.006294343348
0.005146186124
0.00418064635
0.00341601962
0.002822344244
0.002404010327
0.002218063573
0.002257437847
0.002531993832
0.003004009836
0.003561726616
0.004057216963
0.004363760728
0.004432290059
0.004299465524
0.004051807621
0.003771397397
0.003527376707
0.003365362375
0.003293094372
0.003319144894
0.003425755756
0.003614844813
0.003889282197
0.004251953631
0.004733548156
0.00535542978
0.006153952603
0.007186810392
0.008483461231
0.01013450422
0.01219451985
0.01472136697
0.01778362864
0.02134032099
0.02539261346
0.02976376564
0.03470698285
0.03947895305
0.04460006598
0.05006617027
0.05460877545
0.05893420547
0.06276098146
0.06576576755
0.0679789828
0.06937135577
0.0700387433
0.0696795768
0.0685107784
0.06621315706
0.06316889955
0.05924386961
0.05440046967
0.04908417989
0.04349592613
0.03764391734
0.03186659564
0.02636944659
0.021306399
0.01681812745
0.006386373843
0.004812048145
0.003551123918
0.002578591693
0.001854310643
0.001326964382
0.000957151613
0.0007040654563
0.0005354497748
0.0004284984023
0.0003647833166
0.0003332215151
0.0003289299133
0.000355172107
0.0004271551483
0.0005624731579
0.0007566914412
0.0009678826011
0.001135924523
0.001225295436
0.001240215946
0.001218989431
0.001215995252
0.001272850107
0.001424748529
0.001709618668
0.002183429311
0.002866281582
0.003851627123
0.005213337362
0.007025185107
0.009410729005
0.012336675
0.01607625338
0.02031013479
0.02520428993
0.0308490011
0.03695615549
0.0435820137
0.05047067983
0.05773340038
0.06514916211
0.07259993369
0.08018494691
0.08754053441
0.09493927403
0.1022085914
0.1091896941
0.1161427004
0.1226087298
0.1288875469
0.1348648163
0.1402407562
0.1454445426
0.1499727594
0.1541198263
0.1578357205
0.1606629988
0.1632232265
0.1650355293
0.1663962894
0.1674242549
0.1675680573
0.1675404185
0.1668711273
0.165727451
0.164362717
0.1621491558
0.1598544443
0.1570706161
0.1538423916
0.1504913861
0.1465362077
0.1425413175
0.1382774157
0.1336624097
0.1290138114
0.1239531991
0.1188188144
0.1134224717
0.1075185929
0.1022176471
0.09695001242
0.0921061233
0.08713705342
0.08181589545
0.07635772164
0.07100720138
0.06617874412
0.06168914593
0.05695369712
0.05220224979
0.04756883672
0.04331433924
0.03920361931
0.03515902845
0.03131133181
0.02774860898
0.02445207837
0.02140517447
0.01865640058
0.01612071139
0.01380131718
0.0117209753
0.009852689826
0.008205370629
0.006766275823
0.005517544134
0.004450627777
0.00354330705
0.002782028351
0.002152779322
0.001636942434
0.001223436822
0.0008971517879
0.0006454121161
0.0004571385056
0.0003201378223
0.0002203917998
0.0001538483239
0.000111122918
8.34408569e-05
6.763137218e-05
6.018983674e-05
5.783149047e-05
5.935718683e-05
6.438793929e-05
7.225138281e-05
8.264294108e-05
9.611991533e-05
0.0001127394128
0.0001337143839
0.0001616949012
0.0001934307885
0.0002351630332
0.0002850903582
0.0003495467633
0.0004254496769
0.0005145150764
0.0006274002756
0.0007658989804
0.0009232071647
0.001113339391
0.001329779029
0.001576418446
0.001854911137