/*--------------------------------*- C++ -*----------------------------------*\
| =========                 |                                                 |
| \\      /  F ield         | OpenFOAM: The Open Source CFD Toolbox           |
|  \\    /   O peration     | Version:  2212                                  |
|   \\  /    A nd           | Website:  www.openfoam.com                      |
|    \\/     M anipulation  |                                                 |
\*---------------------------------------------------------------------------*/
FoamFile
{
    version     2.0;
    format      ascii;
    arch        "LSB;label=32;scalar=64";
    class       volScalarField;
    location    "1000";
    object      k_0;
}
// * * * * * * * * * * * * * * * * * * * * * * * * * * * * * * * * * * * * * //

dimensions      [0 2 -2 0 0 0 0];

internalField   nonuniform List<scalar> 
162063
(
0.1539103845
0.1219962645
0.09450314722
0.07153213852
0.05311271395
0.03875771566
0.02805265139
0.02037310243
0.0150682986
0.01159299124
0.009438608703
0.008263713139
0.00787427177
0.008272111009
0.009859191778
0.01320578724
0.01833694529
0.02412050216
0.02886067527
0.03147964899
0.03210685588
0.03202674728
0.03291326598
0.03605336949
0.04256123173
0.05395980353
0.07155573982
0.09723980695
0.1327670546
0.178810883
0.2369953778
0.306928588
0.3876667283
0.4773725211
0.5720645846
0.6711947947
0.7709437187
0.869840353
0.9673892381
1.0611305
1.153248996
1.241515978
1.32564485
1.407123482
1.48325211
1.556982094
1.627114645
1.692918315
1.756468102
1.814726001
1.869936318
1.921111693
1.966770596
2.009454591
2.046431928
2.079656544
2.108721331
2.131308899
2.150255667
2.163223652
2.171881001
2.176927941
2.176099721
2.172788072
2.164872959
2.153129345
2.138341431
2.11786591
2.095195109
2.068590181
2.038312398
2.005518453
1.968345676
1.929730741
1.888577606
1.844729002
1.799143289
1.75013229
1.699524159
1.646219816
1.59004703
1.532029483
1.471540089
1.409801934
1.34650913
1.283256669
1.220572215
1.156996309
1.093223972
1.028771766
0.9649100353
0.9011713246
0.837451446
0.7745241174
0.7116462725
0.6498917275
0.5891437989
0.5298095644
0.4736866381
0.420467068
0.3713235371
0.3251979133
0.2818007126
0.2417347441
0.2049275592
0.1716983102
0.142145563
0.1161448467
0.09369574902
0.07447431067
0.05827874066
0.04487306683
0.03389617174
0.02510837519
0.01821083823
0.01293198436
0.00902014764
0.006217801846
0.004287132022
0.003014211106
0.002213943865
0.001753137308
0.001516641863
0.001432243769
0.001460752595
0.001569925831
0.001750551747
0.002002098909
0.002325444709
0.002737140097
0.0032453799
0.003874354629
0.004652259576
0.005596528901
0.00676144007
0.008172974024
0.009878003417
0.01193649324
0.01435414653
0.01722429168
0.02055650342
0.02436746992
0.02870353323
0.03344998529
0.03866807089
0.04424252805
0.05004950679
0.05606603516
0.06202520852
0.06805138556
0.07406916626
0.07995083421
0.08580488758
0.09139866959
0.09682090394
0.1020390535
0.1069031578
0.1116472903
0.1160755212
0.1202928266
0.1243534358
0.1280361093
0.1316528131
0.1350019646
0.1381677002
0.1412550743
0.1439632635
0.1466882349
0.149204862
0.1515778383
0.1538992569
0.1559118039
0.1579340683
0.1598412962
0.1616680633
0.1635864863
0.1653163866
0.1671519138
0.1689614675
0.1706810786
0.1725342745
0.1742403898
0.1760471249
0.1778771709
0.1795888286
0.1814557555
0.1831780608
0.184960239
0.1867826507
0.1884076479
0.1901886128
0.1918107924
0.1934503499
0.1951544944
0.1966069459
0.1982561984
0.1997898983
0.2013508032
0.2030709433
0.2044554939
0.2061128418
0.2076574649
0.2091719464
0.2108260612
0.2121991234
0.2137640413
0.2152513229
0.2166309179
0.2181474955
0.2193767125
0.2207473518
0.2220705792
0.2232426239
0.2245829034
0.2256768521
0.2268893671
0.2281059119
0.2291299107
0.2303429018
0.2313346213
0.232403207
0.2335182752
0.234391782
0.2354772248
0.2363783241
0.2373182988
0.2383450632
0.2390844077
0.2400487577
0.2408550606
0.2416480855
0.2425430678
0.2430605867
0.2437488481
0.2442587507
0.2445903693
0.2448942046
0.2447617312
0.2445650393
0.2441941379
0.2438299992
0.243613699
0.2435401055
0.2436387776
0.2436067394
0.2437852893
0.2437999117
0.2438232136
0.2439592228
0.2438398226
0.24387455
0.2437320476
0.2435300624
0.2434777637
0.2431189937
0.242910667
0.2425821137
0.2421419368
0.2418898156
0.2412937287
0.2408243421
0.2402855217
0.2396055159
0.2391660757
0.2383583193
0.237667118
0.2369619655
0.2360905105
0.2354430066
0.2344864283
0.2336088895
0.2327634939
0.2317234523
0.2308846591
0.2297941822
0.2287432382
0.2277654258
0.2265731205
0.2255699177
0.2243802197
0.2231951538
0.2221203848
0.2208107611
0.2196705073
0.2183918852
0.2170722516
0.2159002752
0.2144802891
0.2132050998
0.2118434259
0.2104202106
0.2091759395
0.2076805501
0.2063210969
0.2049479913
0.2034870118
0.2022976395
0.2008347444
0.1995347545
0.1982856682
0.1969802186
0.1958823301
0.1946155661
0.1934602422
0.1923661048
0.1912264797
0.190192813
0.1891030608
0.188104726
0.1872076442
0.1862137708
0.1853908565
0.1843901046
0.1833155957
0.1822510323
0.1809810564
0.1797737445
0.1784145524
0.1769817894
0.1755410942
0.1738266393
0.1720522799
0.1700324935
0.1677499083
0.1653184267
0.1623871277
0.1591680177
0.155469667
0.1511682537
0.1463973864
0.1406874342
0.1342098934
0.1268280643
0.1183519345
0.1090284142
0.09850585896
0.0872182242
0.07551569631
0.06372070242
0.05285008534
0.04300374127
0.03605432635
0.03244909289
0.03213374291
0.03552135633
0.04154306528
0.04847859973
0.05398711841
0.05656209358
0.05603004391
0.05332666563
0.04959299235
0.04599373893
0.04332430203
0.04192502351
0.04189872294
0.04302904188
0.04522310806
0.04846406031
0.05271772756
0.05830614089
0.06538530126
0.07433980104
0.08564087718
0.09954008826
0.1167823873
0.1376177992
0.1623469377
0.1911600328
0.2233979695
0.2588404475
0.2961344644
0.3339061915
0.3718027035
0.4086693502
0.4439181554
0.4758713477
0.50229765
0.5234116988
0.5397558334
0.5513536918
0.5575354747
0.5592107775
0.5555509191
0.5466855304
0.5329522481
0.5135516318
0.4896291692
0.4608835494
0.4278252111
0.3915754062
0.3519516605
0.310941884
0.2693785495
0.2284875377
0.1898875595
0.08727360115
0.068191502
0.05213349375
0.0390159748
0.0287243018
0.02085902138
0.01509297602
0.01101506979
0.008225301585
0.006409442218
0.00528568914
0.004674317968
0.004469261812
0.004672212152
0.005473479767
0.007134569702
0.009668154002
0.01254418426
0.01493846793
0.01630921318
0.0166790226
0.01664105204
0.01699453792
0.01838565201
0.02138318837
0.02670145141
0.03498713943
0.04731917413
0.06476722699
0.08802275334
0.1186272307
0.1569616516
0.2031488483
0.2567500049
0.3158931088
0.380407897
0.447994801
0.5174366713
0.5882978809
0.6582049217
0.7283995266
0.7969240283
0.8632532011
0.9283568784
0.9897318943
1.049814364
1.107521246
1.161989851
1.215178464
1.264267732
1.311168377
1.355244198
1.394816907
1.432141982
1.464943341
1.494650677
1.520965998
1.542082365
1.560241731
1.573549413
1.583411532
1.590077681
1.591892433
1.591687268
1.587448778
1.580274859
1.570296746
1.555626323
1.539240232
1.519345756
1.496594858
1.47148234
1.443049186
1.413174635
1.381344317
1.347134915
1.311600142
1.273590496
1.23380139
1.192551784
1.14831774
1.103263505
1.056021905
1.007592556
0.9587166967
0.9095804564
0.8616721278
0.8130595276
0.7642275391
0.715268922
0.6668319891
0.6192177521
0.5718070917
0.5253934587
0.4793866026
0.4347820023
0.3914123695
0.3495179929
0.3104721915
0.2738743102
0.2402493554
0.209043381
0.1799881381
0.1535106662
0.1294712201
0.1080191359
0.08912909169
0.07264793919
0.05851984286
0.04648428529
0.03638547543
0.02805107036
0.02124213489
0.01578609646
0.01149751036
0.008204066984
0.005747916887
0.003971455392
0.00273449012
0.001903497855
0.001368275578
0.001048776318
0.0008715954727
0.0007904709319
0.0007803062331
0.0008195689591
0.0008986710148
0.001015954281
0.001170849676
0.001370959589
0.001618878348
0.001928096869
0.002310350932
0.002780906829
0.003364223217
0.004080512536
0.004956756711
0.006030250689
0.007314635174
0.008868111148
0.01070534882
0.01285932443
0.01536411123
0.01817936274
0.02135304154
0.02482986799
0.02854864615
0.03252483862
0.03660915903
0.04086537387
0.04523228134
0.04959623457
0.05404199291
0.05835670887
0.06258005295
0.06669308126
0.07056977348
0.07441991113
0.07804327641
0.0815413911
0.08492827764
0.08801643996
0.09107422528
0.09389500311
0.0965693454
0.09915706137
0.1014169528
0.1036703899
0.1057147283
0.1075844923
0.1093875964
0.11087373
0.1123695818
0.1137502403
0.1150222294
0.1163521798
0.1174763336
0.1186810286
0.1198323427
0.1208928787
0.1220562164
0.1230710793
0.1241682143
0.1252689477
0.1262643234
0.1273781241
0.128370378
0.1294008401
0.1304628708
0.1313432632
0.132355837
0.1332294156
0.1341159402
0.1350564737
0.1357874729
0.1366886196
0.1375023808
0.1383392391
0.1392958042
0.1400083089
0.1409223863
0.141762988
0.1425766144
0.1435195597
0.144232079
0.1451128599
0.145937843
0.1466793033
0.1475495364
0.1481784964
0.1489369124
0.1496693277
0.1502828704
0.151050072
0.1516159194
0.152290607
0.1529831466
0.1535164635
0.1542281351
0.1547611985
0.1553719414
0.1560392286
0.1565025862
0.1571641784
0.1576795628
0.1582321513
0.1588790888
0.1592801041
0.159895456
0.1603932339
0.1608850981
0.1614826203
0.1617573169
0.1621864821
0.1624671533
0.162603428
0.1627473427
0.162522582
0.162247616
0.1618145961
0.1614210332
0.1612747359
0.16123181
0.1613239164
0.1612969482
0.1614753602
0.1615245929
0.1616048308
0.1618028095
0.1617819116
0.1619220288
0.1619211516
0.1618916586
0.1620105399
0.1618718296
0.1618862356
0.1618075915
0.1616564771
0.1616823855
0.1614244896
0.161310133
0.1611467132
0.1608772441
0.1608359502
0.1604787718
0.1602466633
0.1600183315
0.1596536217
0.1595032811
0.1590928505
0.1587687179
0.158490033
0.1580529474
0.1578120885
0.1573614652
0.156959565
0.1566381979
0.1561385807
0.1558190665
0.1553399595
0.15487868
0.1545278829
0.1539833914
0.1536006896
0.1530973573
0.152580241
0.1521954148
0.1516088299
0.1511555202
0.1506336436
0.1500640492
0.1496464572
0.1490201373
0.1484993418
0.1479719232
0.1473627899
0.1469612662
0.146329958
0.1458183082
0.1453256239
0.1447696445
0.1443826767
0.1438363525
0.1433698174
0.1429503563
0.1424356493
0.14211225
0.1415567351
0.1410739233
0.1406550537
0.1400710255
0.1395361226
0.1388057168
0.1380003346
0.13717993
0.1361125021
0.1350464597
0.1337702714
0.1323444075
0.1308642854
0.1290403438
0.1271171962
0.1248859144
0.1223430277
0.1195877216
0.1163191296
0.112738059
0.108685694
0.1040910928
0.09907559451
0.09332180661
0.08702090601
0.08016456524
0.07268211961
0.06480803695
0.05635010287
0.04788551652
0.03974791235
0.03222093885
0.02599044285
0.02102067313
0.01784251977
0.01653064884
0.01699067787
0.01934449032
0.02292675791
0.02685658892
0.02988463954
0.03127056414
0.03093832483
0.02941777447
0.02735733609
0.02534187298
0.02385564635
0.02302258884
0.02294870602
0.02348874341
0.02462136128
0.02632158185
0.02859948033
0.03158017311
0.03542640047
0.04026567028
0.04647067551
0.05414186379
0.06376104031
0.07558926306
0.08979234016
0.1067484289
0.1260352517
0.1477551306
0.171099436
0.1952970821
0.2204694324
0.2453773304
0.2696426354
0.2924113738
0.3116450188
0.3275674554
0.3401691114
0.3496467966
0.3551833661
0.3574279461
0.3556103968
0.3499001237
0.3406739415
0.3270903298
0.3103171362
0.2900665585
0.2668316904
0.2416015148
0.214432938
0.1869405326
0.1596745887
0.1334670662
0.1092688372
0.04706183203
0.03650202993
0.02774100998
0.02068006402
0.01520702958
0.01106479242
0.008049226533
0.005925007453
0.004472592063
0.00352383596
0.002932074033
0.002605740863
0.00248873122
0.002581789277
0.002973175271
0.003782696231
0.005015463454
0.006423648076
0.00761270127
0.008317493021
0.008534613056
0.00854021567
0.008714896358
0.009384595613
0.01083352294
0.0134045416
0.01738879454
0.02336095885
0.0318370061
0.0431836307
0.05843712069
0.07785706559
0.1019291497
0.1305563051
0.1631847375
0.1998986288
0.2395234824
0.2814424446
0.3254719736
0.3699526192
0.4155836122
0.4610276314
0.5057141471
0.5502481323
0.5927521403
0.6348177886
0.6756124415
0.714428054
0.752687842
0.7882198933
0.8225718539
0.8551919095
0.8847127496
0.9129938138
0.9378591012
0.9607402253
0.9814084203
0.9980213447
1.012869911
1.023950625
1.032595524
1.039197661
1.041826587
1.043286788
1.041555768
1.037559809
1.03183916
1.022212524
1.011676618
0.9984455377
0.9829876616
0.9661231017
0.9464286545
0.926018545
0.9041491222
0.880536837
0.856259866
0.8299992568
0.8027365932
0.774454273
0.7441226625
0.7134156407
0.6810956984
0.6479733876
0.6146860993
0.5814971652
0.5495191754
0.5170390331
0.4843099565
0.4513742782
0.4192505143
0.3880147108
0.357041392
0.3267590292
0.2969168718
0.2683260602
0.2407266819
0.2142264469
0.1898021718
0.1670787389
0.1461855064
0.1268665196
0.1089798606
0.09277260163
0.07813619557
0.06513289153
0.0537272618
0.04379751418
0.03529957269
0.02806861875
0.02200605898
0.01700369528
0.01291265025
0.009633974688
0.007048159825
0.00505545453
0.003560818391
0.002470463497
0.001704234919
0.001180755176
0.0008365029513
0.000626042032
0.0005031298952
0.0004394730682
0.0004198681258
0.0004300572697
0.0004630335118
0.0005167956608
0.0005906224184
0.0006875861787
0.0008083820021
0.0009597684499
0.001146109866
0.001378500422
0.001665642358
0.002021703327
0.002458620416
0.002998283725
0.003651630994
0.004446249599
0.005394422654
0.006524272039
0.007854366181
0.009372693945
0.01111343332
0.01305354292
0.0151683292
0.01747835673
0.019905947
0.02249101604
0.02519760491
0.02795842568
0.03082879846
0.03367612323
0.03654179952
0.03939713968
0.04214304732
0.04491013278
0.04754771342
0.05012010776
0.05262567527
0.0549263962
0.05721277856
0.05932663142
0.06133359257
0.063274107
0.06496105235
0.06663659744
0.06814350847
0.06950880945
0.07082914116
0.07191056789
0.07300853986
0.07400419626
0.07489883143
0.07582194259
0.07657182896
0.07736658862
0.07811283207
0.07876973509
0.07949770007
0.08009685846
0.08074968627
0.08139856446
0.08194838111
0.08259027224
0.08312444168
0.08368444836
0.08425782021
0.08468420805
0.08520258971
0.08560903372
0.08601923041
0.08646739743
0.08675477423
0.08716584733
0.08750997275
0.08786561047
0.0883082779
0.08856869263
0.08897162725
0.08932211017
0.08965000243
0.09007181813
0.09032619817
0.09070300652
0.09104332654
0.0913245383
0.09170029991
0.09190511089
0.09220351693
0.09248805269
0.09268758845
0.09299950955
0.0931701534
0.09342155532
0.09369438356
0.09386106272
0.09416253889
0.09434582681
0.09458805381
0.0948782339
0.09502989768
0.09532698173
0.09552806264
0.09576123602
0.09607136508
0.09621580895
0.09651458225
0.0967377397
0.09696391384
0.09727620818
0.0973682982
0.09757420849
0.09768125642
0.09767665878
0.09771349656
0.09749785389
0.09724886262
0.09690018393
0.09656274401
0.09654870069
0.09654645349
0.09663940435
0.09665620658
0.09682205028
0.0969041692
0.09702216662
0.09723105142
0.09730035876
0.0974935353
0.09759726681
0.09769499542
0.0979063231
0.09794705945
0.09810659814
0.09820957292
0.09827580157
0.09848221418
0.09849922746
0.09863008897
0.09873705357
0.0987799521
0.09899261884
0.09898835546
0.09907936508
0.09917786906
0.09918990953
0.09936096674
0.09935102402
0.09940964807
0.09950499006
0.09949427807
0.09963046639
0.09961981199
0.09964963364
0.09974243013
0.09970976311
0.09980969156
0.09979576879
0.09979465804
0.09987832797
0.09981848393
0.09987917566
0.09985320791
0.09981501154
0.09988094455
0.09978812404
0.09979928395
0.09975461907
0.0996701584
0.09970303994
0.09956082655
0.09950164302
0.09942245753
0.09927580069
0.09927935752
0.09908694494
0.09897301969
0.09885838606
0.09866101754
0.0985892039
0.09836375843
0.09818566962
0.09803155377
0.09776439578
0.0976304592
0.09734077775
0.09704486883
0.09677044143
0.09634942422
0.09597525254
0.09542165132
0.0947872347
0.0941264926
0.09322485536
0.0923009262
0.09116759458
0.08986794253
0.08850196668
0.08680006749
0.08498944752
0.08289844078
0.08051443776
0.07796016732
0.07496018767
0.07172682369
0.06814372209
0.0641700056
0.05997093
0.05530055008
0.05039276804
0.04526320216
0.03993618496
0.0346687162
0.02936062691
0.02440730223
0.01992179894
0.01596822951
0.01291638455
0.01054590509
0.009090155395
0.008573512448
0.008971012815
0.01031738044
0.01227764194
0.01439226716
0.01602578482
0.01679159259
0.0166422644
0.01585003084
0.01475326425
0.01366453163
0.0128376208
0.01234763005
0.01225471249
0.01248937333
0.01304464308
0.01390262596
0.01506587104
0.01660088449
0.01858421652
0.02109577581
0.0243253205
0.02833297553
0.03338840581
0.03964027612
0.04721598031
0.05634707712
0.066849594
0.07882648661
0.0918815846
0.1055815322
0.120254616
0.1348965731
0.1492453781
0.1633120266
0.1752670947
0.1852959776
0.193564559
0.1999853942
0.2039417362
0.2058331691
0.2051752169
0.2020704217
0.1967583155
0.1885584133
0.1783720484
0.1660820974
0.1519525489
0.1366909385
0.1204455388
0.1042181492
0.08830721089
0.07319170319
0.05941303796
0.02448803942
0.01895438703
0.01439963956
0.0107485755
0.007931369973
0.005804042831
0.004254985119
0.003161686159
0.002410529919
0.001915870066
0.001603453251
0.001427431618
0.001358872019
0.001397249498
0.001582891112
0.001970226502
0.002561213625
0.003240699696
0.003822207985
0.00417819294
0.004301399393
0.004321324554
0.0044182028
0.004756261788
0.005477004586
0.006748133016
0.008693338246
0.01162695121
0.01577126648
0.02128117033
0.02877563829
0.03832384282
0.05037346026
0.06478180891
0.08158739434
0.1008385812
0.1219978017
0.1448146277
0.1692514451
0.1943686605
0.2205584359
0.2470352795
0.2734128546
0.300019376
0.3256717741
0.3512827735
0.3763066737
0.4002670306
0.4240462673
0.4462481028
0.4678647572
0.4884928671
0.5072633481
0.5254320224
0.5414742224
0.5563854624
0.5699881145
0.5809411231
0.5909274092
0.5984720907
0.6045485083
0.6094435657
0.6116461076
0.6132336924
0.6127057914
0.6107338353
0.607808894
0.6022261794
0.5962389368
0.5885012767
0.5793286162
0.5694059951
0.557533509
0.5453742935
0.5323018485
0.5181448679
0.5037166553
0.4879706359
0.4717440912
0.4549184981
0.436857779
0.4186575608
0.3993853936
0.3795566313
0.3597105678
0.3400817044
0.3214125998
0.3023447306
0.2828946935
0.2630824878
0.2441017561
0.2258727332
0.2077676219
0.1899232766
0.1723557346
0.1557101517
0.1396777044
0.1242586537
0.1101487721
0.09705493764
0.08495629993
0.07376270562
0.06338824258
0.05399580828
0.04551913092
0.03798652812
0.03137888971
0.02561926694
0.02068411261
0.0164791621
0.01294906488
0.01003223248
0.007643296852
0.005723539208
0.004205879617
0.00303215258
0.002147110382
0.001496614744
0.00103613224
0.0007166553681
0.0005026903435
0.0003698259894
0.0002891935443
0.0002441348966
0.0002259667965
0.0002255169611
0.0002379890088
0.0002619277784
0.0002966526312
0.000343246004
0.0004016771663
0.0004754109146
0.0005652638444
0.0006794433858
0.0008190267751
0.0009940538581
0.001208098502
0.001473682807
0.001799121701
0.002193354185
0.002663597833
0.003232996922
0.003904696281
0.00467827792
0.005575243351
0.006583768286
0.007695215691
0.00892639646
0.01023914826
0.01165636688
0.01316123326
0.01471987467
0.01636531709
0.01802559246
0.01972715354
0.02145218227
0.02313929138
0.02486354103
0.02653202932
0.02817505004
0.02979117354
0.03128939544
0.03278852048
0.03418674495
0.03552208737
0.03682161837
0.03795609423
0.03908657517
0.04010619456
0.04103280315
0.04193142053
0.04266945529
0.04341672891
0.04409005828
0.04468839113
0.0453007096
0.04578806945
0.04629953242
0.04677319827
0.04717868391
0.0476270969
0.04798088116
0.04836481242
0.0487417047
0.04904487612
0.049407072
0.04969052212
0.04998830725
0.05029183557
0.05049038904
0.05074616562
0.0509226124
0.0510981196
0.05129761384
0.05138666258
0.05155511135
0.05167571438
0.05179998028
0.05197992916
0.05203742909
0.05218537104
0.05229847848
0.05239491778
0.05255165108
0.05259944413
0.05272558907
0.05282991508
0.05289637475
0.05302301406
0.0530409252
0.05311741915
0.05318579569
0.0531994633
0.05328323238
0.05327866274
0.05332458285
0.05338756878
0.05338989281
0.05348087644
0.05350286237
0.05356298094
0.053655775
0.05366590375
0.05376716154
0.0538138824
0.05388368973
0.05400485693
0.05402838847
0.05414781737
0.05422626611
0.05431014883
0.05445085722
0.054463324
0.05454657988
0.05456966142
0.05451114561
0.05451384195
0.05436037821
0.05419026243
0.05396909783
0.053721072
0.05379966396
0.05382072828
0.05389902409
0.05393370002
0.05406223592
0.0541446158
0.05425459926
0.05442390348
0.05451533589
0.05468699605
0.05481003095
0.05493547623
0.05513430369
0.05523525698
0.05541368683
0.05556264129
0.05569556258
0.05592317272
0.05604305584
0.05623813752
0.05642204277
0.05657041306
0.0568270467
0.056952446
0.05713979673
0.05733417477
0.05747880345
0.05772714794
0.05786380731
0.05804615202
0.05825363945
0.05839605308
0.05863489449
0.05878106511
0.05895524739
0.05917086143
0.05930618439
0.05953004074
0.05967925675
0.05983746755
0.06005158325
0.06016848581
0.06036606573
0.0605049759
0.06063379818
0.06083239737
0.06091866141
0.06107527555
0.06118975431
0.06127386162
0.06143725339
0.06147127362
0.06156165988
0.06163069701
0.06164877127
0.06176957335
0.06174126098
0.06176154736
0.0617709892
0.06171011041
0.06172975999
0.06162424658
0.06154293
0.06146816128
0.06130125909
0.06121171362
0.06100369529
0.06078422025
0.06056396855
0.06022176575
0.05991106975
0.05946148668
0.0589450459
0.05840289373
0.057674786
0.05692416723
0.05601132896
0.05497070669
0.05387596696
0.05253491699
0.05111429014
0.04949821488
0.04768295895
0.04576213548
0.04355060981
0.04120873961
0.03867288954
0.03593122732
0.03311223206
0.03006933209
0.02697251516
0.0238425082
0.0207055201
0.01772561031
0.01482472461
0.01225269434
0.009985579451
0.008020842153
0.006545888047
0.005396616171
0.00469198865
0.004451599049
0.004673011542
0.005373881153
0.006389523002
0.007492164232
0.008359843588
0.008790819569
0.008747673549
0.008359789975
0.007797449194
0.007223820477
0.006772072797
0.006488298868
0.006408156051
0.006499835781
0.006761021644
0.007180095436
0.007756610083
0.008523632449
0.009517097131
0.01077972204
0.01240510475
0.01442436856
0.01697796693
0.02014356953
0.02399585874
0.02866029475
0.0340582281
0.04025666905
0.04706079399
0.05422207556
0.06211991728
0.06997602528
0.07761789912
0.08549846612
0.09214956975
0.09770830207
0.1024726546
0.1062924585
0.1087041354
0.1099436223
0.1097910579
0.108282449
0.1055613137
0.1010638739
0.09548612758
0.08881384342
0.08105873231
0.07266632105
0.06380729965
0.05503061906
0.04645732518
0.03835079591
0.03101325462
0.01239123375
0.009605255455
0.007320213901
0.005487480243
0.004072709343
0.003002001828
0.002218924308
0.001663634233
0.001279434831
0.001023971194
0.000860385308
0.0007660159824
0.0007263299376
0.0007402479786
0.000825911806
0.001007730208
0.001286413809
0.001608984685
0.001888581438
0.002064951358
0.002132161231
0.002151081774
0.002205961456
0.002379208862
0.002740675672
0.003373244339
0.004324216565
0.005772116173
0.007802327046
0.01047062931
0.01413344703
0.01876692984
0.02470089338
0.03173250412
0.04009339833
0.04974885395
0.06046220673
0.07213602742
0.08478603629
0.09792902296
0.1117798883
0.1259249021
0.1401462314
0.1546134852
0.1686638513
0.1827788246
0.1966448575
0.2099809754
0.2232790718
0.2357447348
0.2479315524
0.2595974049
0.2702356948
0.2805844739
0.2897656637
0.2983495507
0.3062185364
0.3125722196
0.3184253344
0.3228969432
0.3265751072
0.329616199
0.3310815119
0.332238941
0.3321835853
0.3313220963
0.3299695352
0.3270682857
0.3240031036
0.3199452935
0.3150777316
0.3098377012
0.3034487758
0.2969589658
0.2899586677
0.2823576425
0.2746589969
0.2661941671
0.2575204878
0.2485238328
0.2388499871
0.2291214458
0.218733109
0.2079416534
0.1971786051
0.186656908
0.1767916734
0.1665942663
0.1559619363
0.1448998842
0.134556926
0.1247637859
0.114971275
0.1051526534
0.095459127
0.08639069957
0.07764295004
0.06916096259
0.06144283564
0.05427933832
0.04760244448
0.04141798551
0.03566347946
0.03043716919
0.02571370652
0.02150393592
0.01780326185
0.01456797313
0.01178847596
0.009414129873
0.007416196497
0.00576169233
0.004403697401
0.003309323145
0.002442090335
0.001769039726
0.001259054014
0.0008817609877
0.0006132181973
0.0004241616446
0.0002954321107
0.0002147596641
0.0001642722286
0.000134518912
0.0001208413055
0.0001174893903
0.0001213699848
0.0001315340945
0.0001475150513
0.0001695633969
0.0001974407338
0.0002329659506
0.0002755916369
0.0003312137012
0.0003980503341
0.0004831338693
0.0005863328409
0.0007147722726
0.0008747706451
0.001066490404
0.001293349444
0.001573990055
0.001902872008
0.002283762009
0.002729644727
0.003232026634
0.003788184575
0.004410361188
0.005079839525
0.005807497373
0.006586438899
0.007401545542
0.00827111344
0.009158096058
0.01007769267
0.01102134455
0.01195566306
0.01292167548
0.01386912768
0.01480850101
0.01574075243
0.01661211562
0.01749019041
0.01831614076
0.01911053708
0.01988871161
0.02057307772
0.02125788283
0.02187964774
0.02244772263
0.02300049115
0.02345709619
0.02391849654
0.02433451971
0.02470316059
0.02507854046
0.02537588543
0.02568560976
0.0259708243
0.02621173013
0.02647654273
0.02668124549
0.02690169234
0.02711579476
0.02728267668
0.02748349306
0.02763463862
0.02779314202
0.02795390115
0.02804879626
0.02817604283
0.0282538151
0.02832939092
0.02841857855
0.02843998794
0.0285071494
0.02854409756
0.0285814524
0.02865123392
0.02864730332
0.02869558557
0.028723053
0.02873969617
0.02879142991
0.02877894981
0.02881172324
0.02883240263
0.02883098407
0.02886428406
0.02883439758
0.02883753096
0.02883618692
0.02880291516
0.02880923223
0.02876458573
0.02874730661
0.02874017504
0.02870133429
0.02871658101
0.0286953875
0.02869611395
0.02871639628
0.02869140674
0.02871804063
0.02871613621
0.02872837964
0.02877073848
0.02876028661
0.02880389717
0.02882700271
0.0288544776
0.02891509687
0.02890736077
0.02893899775
0.02893598103
0.02887316534
0.02887199249
0.02878147742
0.02868381246
0.02856261037
0.02839231488
0.02850389318
0.028526891
0.02858221624
0.02861311624
0.02869743771
0.02875873095
0.02883710553
0.02894988225
0.02902236127
0.02914104405
0.0292350902
0.02933292027
0.02947309553
0.02956132358
0.02969467338
0.02981358935
0.02992628495
0.03009775625
0.0302136401
0.03037305418
0.03052624248
0.03066026675
0.03085622898
0.03097906667
0.0311384828
0.03130275026
0.03144012424
0.03163858391
0.03177391264
0.03193662773
0.03211440043
0.03225535588
0.03245363938
0.03259811673
0.03275981371
0.03294600601
0.03308508917
0.0332775751
0.03342528718
0.03357853102
0.0337650689
0.03389228987
0.03406825378
0.03420772718
0.03434030406
0.03451482384
0.03461861624
0.03476496635
0.03488310781
0.03498107013
0.03512690144
0.03518884177
0.03528467261
0.03536415322
0.03541011491
0.03551900673
0.03552965069
0.03556787383
0.03559562201
0.03557421601
0.03559983353
0.03553881678
0.03548963537
0.03544003878
0.03532745243
0.03525670428
0.03510518894
0.03494506539
0.03477951193
0.0345299306
0.03429854415
0.03397555661
0.03360817999
0.03322234036
0.03271599365
0.03219532464
0.03157042508
0.03086542927
0.03012776185
0.02923878805
0.02830481504
0.02725593909
0.02609447333
0.0248800645
0.0235034307
0.02206509745
0.02053839892
0.01891999331
0.01728942263
0.015564745
0.01384688801
0.01214751044
0.01047898437
0.008928542897
0.007436147275
0.006164259591
0.00504526771
0.004065921908
0.003344776537
0.002773608192
0.002416255704
0.002287685217
0.002388726952
0.002731738483
0.00323683392
0.003796384011
0.004248786917
0.004490358774
0.004492527515
0.00431318425
0.004034843361
0.003740751829
0.003499962001
0.003340190549
0.003282451854
0.003312937918
0.003430999424
0.003629757003
0.003908086188
0.004281817391
0.004767359098
0.005385977309
0.006182299581
0.00717153055
0.008423783428
0.009977355816
0.01187140324
0.01416943661
0.01683792191
0.01991414537
0.02330194654
0.02685048255
0.03090046706
0.03487998964
0.03867610885
0.04283619016
0.04628371076
0.04910922769
0.05163544058
0.0537302481
0.05505186443
0.05574106973
0.05574451881
0.05506369426
0.05378415654
0.05143208058
0.04857416029
0.04523502285
0.04125651003
0.03691392781
0.03237403057
0.02791503923
0.02354712963
0.01941484155
0.01569005044
0.006108527922
0.00475160491
0.003639841943
0.002743873244
0.002050024924
0.001522539424
0.001134255098
0.0008573821095
0.0006643807413
0.0005347925841
0.0004506910426
0.0004010780236
0.0003788065329
0.0003828860157
0.0004213109389
0.0005048250222
0.0006336565482
0.0007837837112
0.0009154957755
0.001000963169
0.001036202172
0.00104970801
0.001080020429
0.00116814993
0.001348031091
0.001660632761
0.002120128011
0.002830009117
0.003816472259
0.005094296935
0.006866902894
0.009084247185
0.01196927344
0.0153225825
0.01939007179
0.02409829133
0.02934490018
0.03508867107
0.04135393125
0.04790392803
0.0548520959
0.06199396794
0.06921786788
0.07660916465
0.08382370695
0.09110301542
0.09828215072
0.1052099652
0.112142028
0.1186609392
0.1250520939
0.1311859486
0.1367921014
0.1422632929
0.1471347275
0.1517081575
0.1559161081
0.159330081
0.1624970064
0.164947172
0.1669953029
0.1687166917
0.1695983303
0.1703302288
0.170427625
0.1701077698
0.1695444303
0.1681601012
0.1667105874
0.1647435609
0.162352678
0.1597827085
0.1565963807
0.1533759115
0.1498870635
0.1460863872
0.1422535369
0.1380107978
0.1336818551
0.1291859829
0.1243404334
0.1194690531
0.114215324
0.1086727018
0.103166023
0.09787665834
0.09301622597
0.08790332212
0.08239821292
0.0764995637
0.07116082533
0.06619475603
0.06117706582
0.05601979298
0.05090272294
0.04619376947
0.04163456861
0.03715549268
0.0331045479
0.02934060622
0.02579309777
0.02250362198
0.0194284172
0.01662400345
0.01408127401
0.01180599535
0.009799656006
0.00803903221
0.006521515671
0.00522111084
0.004123790466
0.003212711304
0.002463023435
0.001857215643
0.001375885998
0.001001123774
0.0007158877726
0.0005036467336
0.0003520477743
0.0002437682288
0.000168889662
0.0001217931419
9.153743142e-05
7.297032537e-05
6.377277681e-05
6.043586284e-05
6.106065431e-05
6.508657244e-05
7.221198559e-05
8.241628954e-05
9.544570785e-05
0.0001122688716
0.0001320256319
0.0001587417584
0.0001900941255
0.0002308190663
0.0002796133879
0.0003404941752
0.0004180515115
0.0005094901514
0.0006160922254
0.0007519717296
0.0009089959527
0.001091695112
0.001307885942
0.001550843525
0.001819820594