/*--------------------------------*- C++ -*----------------------------------*\
| =========                 |                                                 |
| \\      /  F ield         | OpenFOAM: The Open Source CFD Toolbox           |
|  \\    /   O peration     | Version:  2212                                  |
|   \\  /    A nd           | Website:  www.openfoam.com                      |
|    \\/     M anipulation  |                                                 |
\*---------------------------------------------------------------------------*/
FoamFile
{
    version     2.0;
    format      ascii;
    arch        "LSB;label=32;scalar=64";
    class       volScalarField;
    location    "1000";
    object      nut;
}
// * * * * * * * * * * * * * * * * * * * * * * * * * * * * * * * * * * * * * //

dimensions      [0 2 -1 0 0 0 0];

internalField   nonuniform List<scalar> 
162063
(
1.438388458e-06
1.057048272e-06
7.666029143e-07
5.499489546e-07
3.929057407e-07
2.802535085e-07
2.018747769e-07
1.487076663e-07
1.138436343e-07
9.276427941e-08
8.190454954e-08
7.94797293e-08
8.501391689e-08
1.017276159e-07
1.390387375e-07
2.078754428e-07
3.039123743e-07
3.999898811e-07
4.631238427e-07
4.812019914e-07
4.63759703e-07
4.345394446e-07
4.171227071e-07
4.259156468e-07
4.663602353e-07
5.450974007e-07
6.676576117e-07
8.337383825e-07
1.052248814e-06
1.325892922e-06
1.664814263e-06
2.079481148e-06
2.577614238e-06
3.174252618e-06
3.852918496e-06
4.63636675e-06
5.511747183e-06
6.467367632e-06
7.512386027e-06
8.607754573e-06
9.773660643e-06
1.097316262e-05
1.218861074e-05
1.343678466e-05
1.465796249e-05
1.589915605e-05
1.712799989e-05
1.831808231e-05
1.950783065e-05
2.061706023e-05
2.170528032e-05
2.274716836e-05
2.369945937e-05
2.462510292e-05
2.544655476e-05
2.621278765e-05
2.690296467e-05
2.745165694e-05
2.794982894e-05
2.83291914e-05
2.863868633e-05
2.888477052e-05
2.899420773e-05
2.906701215e-05
2.903273517e-05
2.89214451e-05
2.875359918e-05
2.845250899e-05
2.812169298e-05
2.77037013e-05
2.721373142e-05
2.667810466e-05
2.604386487e-05
2.53798377e-05
2.464254911e-05
2.383842464e-05
2.298460025e-05
2.205721327e-05
2.110297149e-05
2.009946494e-05
1.905969302e-05
1.806495991e-05
1.710392689e-05
1.619592469e-05
1.52716268e-05
1.433007843e-05
1.337558861e-05
1.244279218e-05
1.157938328e-05
1.075008281e-05
9.922792371e-06
9.098691783e-06
8.292448281e-06
7.535343245e-06
6.798574369e-06
6.088714658e-06
5.412171737e-06
4.776469982e-06
4.193205558e-06
3.653690954e-06
3.173892103e-06
2.737044014e-06
2.338800522e-06
1.983199002e-06
1.663897832e-06
1.38259832e-06
1.137568611e-06
9.248739348e-07
7.43429715e-07
5.887577531e-07
4.586596676e-07
3.510374308e-07
2.629601728e-07
1.92783272e-07
1.381281065e-07
9.686112319e-08
6.697679516e-08
4.61673193e-08
3.211938241e-08
2.347855647e-08
1.859860215e-08
1.608744409e-08
1.527639863e-08
1.565512199e-08
1.678441198e-08
1.849366395e-08
2.084805448e-08
2.376822679e-08
2.717651777e-08
3.126433143e-08
3.602739223e-08
4.165351563e-08
4.832943826e-08
5.566013447e-08
6.426702659e-08
7.391846991e-08
8.480291701e-08
9.699146623e-08
1.103049004e-07
1.254002455e-07
1.420031788e-07
1.5993957e-07
1.795874548e-07
2.002903408e-07
2.225797983e-07
2.429298509e-07
2.630516007e-07
2.840451833e-07
3.05633413e-07
3.285681668e-07
3.527188025e-07
3.776983136e-07
4.0434762e-07
4.317217795e-07
4.607066254e-07
4.912361294e-07
5.224848451e-07
5.562548099e-07
5.907644314e-07
6.274723823e-07
6.660323629e-07
7.049625581e-07
7.471654597e-07
7.898765076e-07
8.349355343e-07
8.818834681e-07
9.282927032e-07
9.781821022e-07
1.028273717e-06
1.07970925e-06
1.133690282e-06
1.185705926e-06
1.239159365e-06
1.283632858e-06
1.327699939e-06
1.37473453e-06
1.418884567e-06
1.466288075e-06
1.51416867e-06
1.560924762e-06
1.611678503e-06
1.659717749e-06
1.711061329e-06
1.763780725e-06
1.814153345e-06
1.869394005e-06
1.921428598e-06
1.976010135e-06
2.032192556e-06
2.083635753e-06
2.14024512e-06
2.192993497e-06
2.247064875e-06
2.303684924e-06
2.353500168e-06
2.409882746e-06
2.463189245e-06
2.517990623e-06
2.578541576e-06
2.629966063e-06
2.690190892e-06
2.747513165e-06
2.804286792e-06
2.866170149e-06
2.918922423e-06
2.97873899e-06
3.03619605e-06
3.090446004e-06
3.15006233e-06
3.199786589e-06
3.255020399e-06
3.308651199e-06
3.356903924e-06
3.411542971e-06
3.457012359e-06
3.507134621e-06
3.557337235e-06
3.600102357e-06
3.650215422e-06
3.691839458e-06
3.736509287e-06
3.782678563e-06
3.818976681e-06
3.863476352e-06
3.900446682e-06
3.938714849e-06
3.979961958e-06
4.008987249e-06
4.04678675e-06
4.078174301e-06
4.108887975e-06
4.143594569e-06
4.163191572e-06
4.190119847e-06
4.209594966e-06
4.224210882e-06
4.238568494e-06
4.236158824e-06
4.23309097e-06
4.222494569e-06
4.223387445e-06
4.196735278e-06
4.186795578e-06
4.18256386e-06
4.174028142e-06
4.173523608e-06
4.166180171e-06
4.158731576e-06
4.155277633e-06
4.141244918e-06
4.133036082e-06
4.117529828e-06
4.099249103e-06
4.086564446e-06
4.061217266e-06
4.041299963e-06
4.016220433e-06
3.986643423e-06
3.964605641e-06
3.928863925e-06
3.898146984e-06
3.864713093e-06
3.82553754e-06
3.795722331e-06
3.751301108e-06
3.711079783e-06
3.670243347e-06
3.622799941e-06
3.583935591e-06
3.53334376e-06
3.485583338e-06
3.439174611e-06
3.385634034e-06
3.339817671e-06
3.285027742e-06
3.231723429e-06
3.181423928e-06
3.123679645e-06
3.072780273e-06
3.015632123e-06
2.95881644e-06
2.90638059e-06
2.8463368e-06
2.792250549e-06
2.734155692e-06
2.675263392e-06
2.621798019e-06
2.560894269e-06
2.505169027e-06
2.447455505e-06
2.388326536e-06
2.335329932e-06
2.2753119e-06
2.219743615e-06
2.164174367e-06
2.106716878e-06
2.056707525e-06
2.000037354e-06
1.947902956e-06
1.897194976e-06
1.844641758e-06
1.797562339e-06
1.746261936e-06
1.697588534e-06
1.650659821e-06
1.601920606e-06
1.557472352e-06
1.510241355e-06
1.464956364e-06
1.4219207e-06
1.377136191e-06
1.335835689e-06
1.283647374e-06
1.228260091e-06
1.176334084e-06
1.1237394e-06
1.074131853e-06
1.025137917e-06
9.771123005e-07
9.317460721e-07
8.859449812e-07
8.423285567e-07
7.992419713e-07
7.571769981e-07
7.165000788e-07
6.762490665e-07
6.371926844e-07
5.99102721e-07
5.620809585e-07
5.26285922e-07
4.915369083e-07
4.579721396e-07
4.263741022e-07
3.963120065e-07
3.688117582e-07
3.438038783e-07
3.229679402e-07
3.083871107e-07
2.896952353e-07
2.711287956e-07
2.614307062e-07
2.654264723e-07
2.882256431e-07
3.411974086e-07
4.245398726e-07
5.214994668e-07
6.045380135e-07
6.519077513e-07
6.587731276e-07
6.336663108e-07
5.934251364e-07
5.510101886e-07
5.168813191e-07
4.969014063e-07
4.914874132e-07
5.004992901e-07
5.212636218e-07
5.539550251e-07
5.994157694e-07
6.583422117e-07
7.367873026e-07
8.382773825e-07
9.704168744e-07
1.142780566e-06
1.361127604e-06
1.642857318e-06
1.996841514e-06
2.434773369e-06
2.968165959e-06
3.585944849e-06
4.288154441e-06
5.043776175e-06
5.849217696e-06
6.637837114e-06
7.439953201e-06
8.259925264e-06
8.932604528e-06
9.539786302e-06
1.003734919e-05
1.039741095e-05
1.063282753e-05
1.072238357e-05
1.069238085e-05
1.050974839e-05
1.019220559e-05
9.744539382e-06
9.149772739e-06
8.44969082e-06
7.638466277e-06
6.758422504e-06
5.85041498e-06
4.920062036e-06
4.039827211e-06
3.232771228e-06
2.521456899e-06
1.926759942e-06
5.734683034e-07
4.25007885e-07
3.102765118e-07
2.23605132e-07
1.600564724e-07
1.140738748e-07
8.194865951e-08
6.011396672e-08
4.576244406e-08
3.701199096e-08
3.23231742e-08
3.085470057e-08
3.234155324e-08
3.772205972e-08
4.985665998e-08
7.198023329e-08
1.028377909e-07
1.34379752e-07
1.563571116e-07
1.64447035e-07
1.609991699e-07
1.53102805e-07
1.486225519e-07
1.527256364e-07
1.685749914e-07
1.997437547e-07
2.503407008e-07
3.211082947e-07
4.179883747e-07
5.439847651e-07
7.021801092e-07
8.982523767e-07
1.131429493e-06
1.413007008e-06
1.726890579e-06
2.086948073e-06
2.488642907e-06
2.925001086e-06
3.401006619e-06
3.898589599e-06
4.429879115e-06
4.978603249e-06
5.537629559e-06
6.116707869e-06
6.686937797e-06
7.272999855e-06
7.859509516e-06
8.433152947e-06
9.015013461e-06
9.563532085e-06
1.0105563e-05
1.062938967e-05
1.111055024e-05
1.158521721e-05
1.200875022e-05
1.240773503e-05
1.277210921e-05
1.306285871e-05
1.333237122e-05
1.353865825e-05
1.370846738e-05
1.384696985e-05
1.390860545e-05
1.395352305e-05
1.393951585e-05
1.388304965e-05
1.379908419e-05
1.363913702e-05
1.346651805e-05
1.324678857e-05
1.298754502e-05
1.27076371e-05
1.237329588e-05
1.202770385e-05
1.164769387e-05
1.123459018e-05
1.080278076e-05
1.033460491e-05
9.857086347e-06
9.355673173e-06
8.830306355e-06
8.343166634e-06
7.875363303e-06
7.444453286e-06
7.004398167e-06
6.546674444e-06
6.07790361e-06
5.623361225e-06
5.21552662e-06
4.834430757e-06
4.445362786e-06
4.055041752e-06
3.67602126e-06
3.328320158e-06
2.993342372e-06
2.668799512e-06
2.361492605e-06
2.076784517e-06
1.816489998e-06
1.576934961e-06
1.364463936e-06
1.171860495e-06
9.973876821e-07
8.426293634e-07
7.044865436e-07
5.835566565e-07
4.788103934e-07
3.88393991e-07
3.116778136e-07
2.466228689e-07
1.921553739e-07
1.472811247e-07
1.106172603e-07
8.14240272e-08
5.863693354e-08
4.134367198e-08
2.873108087e-08
1.984294357e-08
1.367575005e-08
9.818470342e-09
7.573704192e-09
6.297114123e-09
5.770406573e-09
5.78115332e-09
6.105589748e-09
6.685499941e-09
7.551640992e-09
8.662532387e-09
9.990658658e-09
1.162197642e-08
1.356762851e-08
1.593780007e-08
1.890022054e-08
2.217649814e-08
2.621215615e-08
3.084689182e-08
3.629382641e-08
4.247407722e-08
4.935535004e-08
5.74030799e-08
6.646116467e-08
7.630656359e-08
8.727079135e-08
9.890805448e-08
1.114796306e-07
1.247094992e-07
1.383385402e-07
1.526644634e-07
1.671736377e-07
1.82408817e-07
1.981426537e-07
2.133425494e-07
2.27637183e-07
2.418287817e-07
2.565935122e-07
2.717560141e-07
2.871401545e-07
3.03294025e-07
3.195696755e-07
3.365316015e-07
3.539381081e-07
3.713165578e-07
3.895872352e-07
4.078486406e-07
4.267011145e-07
4.460064389e-07
4.647778205e-07
4.845770943e-07
5.040124838e-07
5.236038034e-07
5.435005393e-07
5.623969224e-07
5.819648942e-07
5.985061511e-07
6.145978997e-07
6.317837608e-07
6.474760831e-07
6.644162441e-07
6.814047947e-07
6.977640666e-07
7.157341262e-07
7.324137668e-07
7.504067232e-07
7.689358176e-07
7.863854919e-07
8.058516452e-07
8.239391588e-07
8.430364799e-07
8.62787217e-07
8.804816529e-07
9.002507104e-07
9.184013054e-07
9.37050176e-07
9.56770623e-07
9.737186479e-07
9.933811965e-07
1.011866241e-06
1.030881781e-06
1.051934961e-06
1.069429603e-06
1.09021933e-06
1.110021782e-06
1.129590455e-06
1.151346452e-06
1.169471309e-06
1.190537248e-06
1.210814702e-06
1.229836178e-06
1.251147069e-06
1.268455336e-06
1.288045574e-06
1.30711592e-06
1.323971683e-06
1.343513622e-06
1.359345435e-06
1.377129337e-06
1.395167298e-06
1.410258527e-06
1.428562847e-06
1.443518163e-06
1.45977838e-06
1.476858678e-06
1.489884422e-06
1.506405289e-06
1.519962999e-06
1.53409687e-06
1.54969551e-06
1.560269422e-06
1.574557795e-06
1.586374644e-06
1.597914083e-06
1.611284877e-06
1.618455561e-06
1.628641122e-06
1.635636294e-06
1.640655764e-06
1.64552899e-06
1.643692282e-06
1.641450823e-06
1.636313584e-06
1.639263403e-06
1.625909572e-06
1.621952752e-06
1.620351857e-06
1.617007266e-06
1.617066409e-06
1.614271538e-06
1.611642282e-06
1.610719924e-06
1.605483289e-06
1.60285428e-06
1.597189921e-06
1.590597718e-06
1.58642036e-06
1.577009488e-06
1.570089015e-06
1.561060577e-06
1.550384629e-06
1.543011954e-06
1.530101791e-06
1.51962028e-06
1.508036671e-06
1.494227463e-06
1.484367099e-06
1.468423442e-06
1.454430299e-06
1.440227654e-06
1.423471761e-06
1.410394468e-06
1.392521709e-06
1.376031958e-06
1.360168809e-06
1.34152871e-06
1.326210835e-06
1.307265161e-06
1.289113052e-06
1.272256407e-06
1.252468901e-06
1.235614256e-06
1.216240292e-06
1.197148805e-06
1.179907503e-06
1.159649241e-06
1.141946562e-06
1.122643919e-06
1.10313248e-06
1.085864527e-06
1.065598903e-06
1.04750944e-06
1.028592304e-06
1.009142201e-06
9.92178048e-07
9.723034381e-07
9.542395819e-07
9.361096402e-07
9.172504128e-07
9.012498672e-07
8.824892849e-07
8.653299778e-07
8.48593302e-07
8.310044599e-07
8.156833153e-07
7.984809361e-07
7.823354073e-07
7.668424363e-07
7.504295737e-07
7.358667732e-07
7.198880658e-07
7.044939978e-07
6.899564241e-07
6.743588388e-07
6.576853832e-07
6.388649934e-07
6.199415434e-07
6.019713326e-07
5.83261983e-07
5.65153024e-07
5.469555521e-07
5.284915704e-07
5.10812341e-07
4.923221933e-07
4.741367557e-07
4.558331779e-07
4.37071538e-07
4.187008306e-07
3.995328304e-07
3.80465127e-07
3.614310312e-07
3.420504167e-07
3.232843102e-07
3.041863686e-07
2.856249407e-07
2.64842472e-07
2.421817706e-07
2.197773434e-07
1.975536948e-07
1.7588166e-07
1.55742151e-07
1.381924119e-07
1.230166838e-07
1.120072264e-07
1.090437979e-07
1.156655651e-07
1.344101171e-07
1.641181242e-07
1.979644944e-07
2.264322289e-07
2.421978006e-07
2.435021639e-07
2.336268763e-07
2.184777989e-07
2.027075025e-07
1.90078513e-07
1.82626363e-07
1.804244784e-07
1.835664327e-07
1.909839272e-07
2.028284404e-07
2.19388026e-07
2.408522731e-07
2.694260052e-07
3.063544017e-07
3.543251554e-07
4.168643215e-07
4.959742599e-07
5.981033894e-07
7.268326106e-07
8.867532082e-07
1.082943728e-06
1.31231803e-06
1.575875184e-06
1.862555423e-06
2.182259742e-06
2.489725769e-06
2.815813998e-06
3.166235395e-06
3.445442984e-06
3.71038227e-06
3.93741974e-06
4.103481449e-06
4.214435307e-06
4.26426926e-06
4.262821773e-06
4.191894253e-06
4.063282035e-06
3.873896226e-06
3.626818633e-06
3.335150813e-06
2.996594138e-06
2.637709701e-06
2.274584921e-06
1.908580352e-06
1.56738668e-06
1.258557333e-06
9.880438359e-07
7.61142687e-07
2.191960957e-07
1.634550286e-07
1.197401805e-07
8.644007074e-08
6.186919529e-08
4.403853039e-08
3.158810955e-08
2.312478542e-08
1.755062377e-08
1.412255731e-08
1.22250539e-08
1.150649995e-08
1.184686446e-08
1.350917267e-08
1.736318827e-08
2.438252021e-08
3.421139135e-08
4.444933469e-08
5.190275579e-08
5.506768837e-08
5.4541212e-08
5.243378909e-08
5.134854945e-08
5.300184455e-08
5.867600103e-08
6.978795585e-08
8.844557288e-08
1.146801e-07
1.517824716e-07
2.01983513e-07
2.661204723e-07
3.479486031e-07
4.448416152e-07
5.656256429e-07
6.981597281e-07
8.50128442e-07
1.021682046e-06
1.206701321e-06
1.407753159e-06
1.616776676e-06
1.83948614e-06
2.068857602e-06
2.301971688e-06
2.543334676e-06
2.780335952e-06
3.02426991e-06
3.268627934e-06
3.507789335e-06
3.751671085e-06
3.981985525e-06
4.211033045e-06
4.433229493e-06
4.636966523e-06
4.839426184e-06
5.019681057e-06
5.190192012e-06
5.347043032e-06
5.471329954e-06
5.587907564e-06
5.676364642e-06
5.749036605e-06
5.808920679e-06
5.83351512e-06
5.852012181e-06
5.84401795e-06
5.817146788e-06
5.779325728e-06
5.706231825e-06
5.629170306e-06
5.53119545e-06
5.415596884e-06
5.292522064e-06
5.144577939e-06
4.993718872e-06
4.829263945e-06
4.650805199e-06
4.467038933e-06
4.267371413e-06
4.06517381e-06
3.852180287e-06
3.624463745e-06
3.421124531e-06
3.226529285e-06
3.053302364e-06
2.874389159e-06
2.681468531e-06
2.480288369e-06
2.286839585e-06
2.119968706e-06
1.969552273e-06
1.808741037e-06
1.645212244e-06
1.487303252e-06
1.346441324e-06
1.211556065e-06
1.07849782e-06
9.530887114e-07
8.384659577e-07
7.331504742e-07
6.36235395e-07
5.504659779e-07
4.724275325e-07
4.018484052e-07
3.39342782e-07
2.835773043e-07
2.348333096e-07
1.92648024e-07
1.562759607e-07
1.254422313e-07
9.933373997e-08
7.749720437e-08
5.952967222e-08
4.484816562e-08
3.31494546e-08
2.399121594e-08
1.700770654e-08
1.188518262e-08
8.242169137e-09
5.641545436e-09
4.001790321e-09
3.028703694e-09
2.42853698e-09
2.147394935e-09
2.096674561e-09
2.167402819e-09
2.342153714e-09
2.63425e-09
3.020746733e-09
3.48957258e-09
4.074164548e-09
4.779347904e-09
5.654504474e-09
6.806585114e-09
8.060979565e-09
9.684955158e-09
1.156799556e-08
1.389483634e-08
1.654647321e-08
1.953155444e-08
2.317657643e-08
2.742825525e-08
3.205208421e-08
3.735585787e-08
4.307604531e-08
4.931986912e-08
5.600351365e-08
6.298997221e-08
7.038338309e-08
7.789116538e-08
8.579411224e-08
9.394534375e-08
1.020987187e-07
1.105578089e-07
1.188655009e-07
1.273633522e-07
1.36000148e-07
1.444153054e-07
1.531515634e-07
1.615858641e-07
1.700820519e-07
1.786758886e-07
1.867559968e-07
1.951731873e-07
2.03256264e-07
2.112695173e-07
2.194320587e-07
2.267807496e-07
2.345104953e-07
2.41792891e-07
2.487485379e-07
2.55831135e-07
2.619714834e-07
2.68484559e-07
2.747066878e-07
2.806097184e-07
2.869116737e-07
2.924231245e-07
2.984078706e-07
3.043198549e-07
3.098606816e-07
3.160263304e-07
3.215414762e-07
3.27562352e-07
3.337488834e-07
3.394125189e-07
3.458871436e-07
3.517359019e-07
3.579613272e-07
3.644275436e-07
3.699671643e-07
3.763138912e-07
3.819397756e-07
3.877148966e-07
3.938872515e-07
3.988823545e-07
4.049244257e-07
4.104589307e-07
4.161447838e-07
4.226027786e-07
4.276209496e-07
4.338878276e-07
4.397701586e-07
4.455274497e-07
4.521310548e-07
4.573177266e-07
4.636343151e-07
4.696818883e-07
4.75250843e-07
4.816998183e-07
4.866180783e-07
4.923968009e-07
4.980073273e-07
5.027653606e-07
5.085223334e-07
5.128761315e-07
5.179335557e-07
5.231249889e-07
5.272720792e-07
5.326994324e-07
5.369581377e-07
5.417150967e-07
5.468295858e-07
5.504746321e-07
5.554320339e-07
5.593577068e-07
5.635258601e-07
5.682966834e-07
5.712781902e-07
5.756440818e-07
5.79177386e-07
5.826454401e-07
5.868159058e-07
5.887946964e-07
5.918932641e-07
5.937746109e-07
5.949891972e-07
5.960834752e-07
5.949046251e-07
5.935771105e-07
5.913393631e-07
5.938965569e-07
5.875622775e-07
5.863534424e-07
5.858152324e-07
5.848052277e-07
5.850549258e-07
5.84319073e-07
5.837334146e-07
5.838388203e-07
5.824597872e-07
5.82097741e-07
5.806928765e-07
5.790408445e-07
5.783342962e-07
5.757883918e-07
5.742229425e-07
5.719439605e-07
5.691467896e-07
5.676729511e-07
5.642992864e-07
5.619096956e-07
5.591230289e-07
5.555503642e-07
5.534545138e-07
5.491160002e-07
5.455494865e-07
5.419386782e-07
5.374332753e-07
5.34341628e-07
5.294682041e-07
5.251528053e-07
5.210977074e-07
5.160309051e-07
5.122532407e-07
5.071033459e-07
5.022777753e-07
4.979577609e-07
4.925289275e-07
4.882461231e-07
4.829740577e-07
4.778162234e-07
4.733768541e-07
4.677431962e-07
4.631190443e-07
4.578357929e-07
4.524630607e-07
4.479732679e-07
4.422430983e-07
4.373771978e-07
4.321335047e-07
4.26644964e-07
4.221417188e-07
4.163695651e-07
4.113100772e-07
4.061651084e-07
4.006722906e-07
3.963409468e-07
3.907346913e-07
3.857417325e-07
3.808403614e-07
3.754852839e-07
3.710506426e-07
3.656820982e-07
3.607127411e-07
3.55975785e-07
3.506992214e-07
3.462541986e-07
3.410572325e-07
3.360154942e-07
3.312422408e-07
3.258465473e-07
3.209649152e-07
3.154011562e-07
3.096854911e-07
3.041304727e-07
2.977040528e-07
2.915050842e-07
2.846753906e-07
2.774524231e-07
2.703297954e-07
2.621865821e-07
2.540197892e-07
2.452148768e-07
2.357570402e-07
2.262210075e-07
2.155288364e-07
2.046125992e-07
1.931328966e-07
1.80996204e-07
1.688742813e-07
1.558142711e-07
1.426763e-07
1.29442406e-07
1.159233162e-07
1.025765445e-07
8.995448099e-08
7.746382821e-08
6.609103664e-08
5.683530815e-08
4.872630998e-08
4.290283648e-08
4.08389528e-08
4.271437483e-08
4.911035781e-08
5.933258329e-08
7.100722141e-08
8.085519868e-08
8.643206945e-08
8.696589023e-08
8.358591047e-08
7.826206258e-08
7.263657759e-08
6.806153464e-08
6.526946764e-08
6.430989188e-08
6.527134055e-08
6.775504495e-08
7.183851659e-08
7.759718368e-08
8.50812443e-08
9.504812818e-08
1.079155641e-07
1.245898183e-07
1.462867125e-07
1.73647032e-07
2.088789731e-07
2.532107211e-07
3.081998825e-07
3.756147519e-07
4.544878558e-07
5.451583807e-07
6.431465766e-07
7.57761684e-07
8.621814055e-07
9.777814983e-07
1.10791382e-06
1.204864417e-06
1.302459915e-06
1.389879272e-06
1.452795431e-06
1.494900951e-06
1.516726585e-06
1.520772826e-06
1.498682888e-06
1.456966192e-06
1.389070911e-06
1.305262764e-06
1.203071636e-06
1.081712591e-06
9.552267043e-07
8.281215631e-07
6.994946164e-07
5.783405381e-07
4.682715936e-07
3.711620426e-07
2.885665167e-07
7.993831523e-08
5.98375164e-08
4.390094315e-08
3.173121035e-08
2.272888037e-08
1.619206282e-08
1.1633433e-08
8.527802089e-09
6.472745815e-09
5.195881838e-09
4.469052435e-09
4.158755427e-09
4.216258164e-09
4.713254739e-09
5.913147376e-09
8.110901859e-09
1.120741689e-08
1.448475301e-08
1.694792098e-08
1.808699954e-08
1.80671918e-08
1.751611979e-08
1.729239899e-08
1.793328961e-08
1.989808187e-08
2.36786477e-08
3.021358637e-08
3.924367908e-08
5.225811286e-08
7.044075979e-08
9.376105498e-08
1.244524577e-07
1.603984046e-07
2.072944173e-07
2.578945706e-07
3.159363066e-07
3.831438826e-07
4.551933161e-07
5.333076091e-07
6.142799598e-07
7.003630159e-07
7.887109778e-07
8.781493919e-07
9.704103101e-07
1.060466397e-06
1.15280215e-06
1.244878013e-06
1.334548543e-06
1.42580281e-06
1.511568308e-06
1.596791339e-06
1.679311695e-06
1.754568565e-06
1.829385876e-06
1.895474567e-06
1.957897464e-06
2.015256108e-06
2.060080104e-06
2.102294987e-06
2.133723473e-06
2.159320182e-06
2.180313029e-06
2.187701499e-06
2.193201755e-06
2.188666507e-06
2.177216328e-06
2.161978941e-06
2.133189726e-06
2.103486284e-06
2.065949233e-06
2.021929898e-06
1.975530432e-06
1.919618745e-06
1.863238831e-06
1.802112829e-06
1.735932293e-06
1.668448981e-06
1.594854626e-06
1.520508034e-06
1.441437729e-06
1.35449895e-06
1.280032323e-06
1.209010907e-06
1.148568919e-06
1.084886491e-06
1.012279795e-06
9.342866185e-07
8.598537338e-07
7.987495734e-07
7.463751915e-07
6.861109384e-07
6.233546018e-07
5.629711345e-07
5.109446433e-07
4.612829708e-07
4.107535577e-07
3.632112832e-07
3.205169358e-07
2.807697775e-07
2.440036806e-07
2.115677549e-07
1.817941791e-07
1.548281122e-07
1.309189101e-07
1.095284203e-07
9.081260848e-08
7.458572021e-08
6.05785357e-08
4.868661597e-08
3.861129578e-08
3.01784571e-08
2.323888717e-08
1.756085387e-08
1.303320938e-08
9.476712476e-09
6.753061e-09
4.746370387e-09
3.30962978e-09
2.252676949e-09
1.585275244e-09
1.184914e-09
9.201252645e-10
7.866510477e-10
7.482728255e-10
7.545708793e-10
8.013989106e-10
8.940111226e-10
1.020985071e-09
1.176644791e-09
1.372750138e-09
1.60991073e-09
1.907085162e-09
2.319189846e-09
2.75138966e-09
3.339544041e-09
4.015196937e-09
4.896073529e-09
5.890527094e-09
7.001407569e-09
8.424644449e-09
1.015513355e-08
1.200590195e-08
1.421509112e-08
1.663808636e-08
1.930511941e-08
2.223202189e-08
2.535725379e-08
2.869213019e-08
3.210923087e-08
3.574968263e-08
3.953553015e-08
4.333741341e-08
4.729693346e-08
5.120952479e-08
5.522176713e-08
5.92959873e-08
6.326098603e-08
6.737804164e-08
7.128741024e-08
7.520025949e-08
7.911283933e-08
8.274109768e-08
8.648695521e-08
9.003177093e-08
9.350232625e-08
9.700445382e-08
1.000815886e-07
1.03306783e-07
1.062906438e-07
1.090917324e-07
1.1192441e-07
1.142942459e-07
1.168102744e-07
1.191596504e-07
1.213273379e-07
1.23638289e-07
1.255580014e-07
1.276536656e-07
1.296844609e-07
1.315161024e-07
1.335862677e-07
1.353391126e-07
1.372774265e-07
1.392559641e-07
1.40984818e-07
1.430325767e-07
1.447986579e-07
1.467038411e-07
1.486954864e-07
1.502820085e-07
1.521769642e-07
1.537595159e-07
1.55381874e-07
1.571480388e-07
1.584227824e-07
1.600914186e-07
1.615426748e-07
1.630321977e-07
1.648086306e-07
1.660109985e-07
1.676781833e-07
1.691929161e-07
1.706450826e-07
1.724082768e-07
1.73629323e-07
1.752655883e-07
1.768082882e-07
1.781741393e-07
1.798636497e-07
1.809898235e-07
1.824246794e-07
1.838047789e-07
1.848736036e-07
1.862955759e-07
1.872106911e-07
1.883582454e-07
1.895474874e-07
1.903848244e-07
1.917142016e-07
1.926764177e-07
1.938198506e-07
1.951005841e-07
1.95887418e-07
1.971354912e-07
1.980498146e-07
1.990662708e-07
2.00303754e-07
2.009540104e-07
2.020863871e-07
2.02958878e-07
2.038363496e-07
2.04957206e-07
2.053660387e-07
2.061770049e-07
2.065565941e-07
2.06724026e-07
2.067965853e-07
2.062011859e-07
2.055730447e-07
2.047041792e-07
2.063330951e-07
2.034988462e-07
2.031991177e-07
2.030620479e-07
2.028379988e-07
2.030536859e-07
2.029563966e-07
2.029399415e-07
2.03193338e-07
2.029797979e-07
2.031339073e-07
2.029704242e-07
2.027520269e-07
2.028833933e-07
2.024242305e-07
2.0231997e-07
2.020012739e-07
2.015317998e-07
2.015834769e-07
2.010496484e-07
2.008654235e-07
2.005389542e-07
1.99947293e-07
1.998784662e-07
1.990388832e-07
1.984835642e-07
1.979273115e-07
1.970740119e-07
1.96736743e-07
1.957712434e-07
1.950156428e-07
1.943627143e-07
1.933550572e-07
1.928248903e-07
1.917931293e-07
1.908859965e-07
1.901684882e-07
1.890410574e-07
1.883454812e-07
1.872699091e-07
1.862365996e-07
1.854745745e-07
1.842452776e-07
1.834017829e-07
1.82289766e-07
1.811370069e-07
1.803263807e-07
1.790045262e-07
1.780187687e-07
1.768625974e-07
1.755944807e-07
1.747149619e-07
1.732833813e-07
1.72132899e-07
1.709239055e-07
1.695507963e-07
1.68651266e-07
1.671684063e-07
1.659208778e-07
1.646844601e-07
1.632109667e-07
1.621088461e-07
1.605470426e-07
1.591327813e-07
1.577940783e-07
1.561691703e-07
1.548869544e-07
1.532299113e-07
1.516133425e-07
1.500759845e-07
1.481884832e-07
1.465213394e-07
1.444871986e-07
1.423416997e-07
1.402364535e-07
1.376465321e-07
1.351236616e-07
1.322240042e-07
1.290668443e-07
1.25905206e-07
1.221502046e-07
1.183205962e-07
1.14094858e-07
1.09463859e-07
1.047302864e-07
9.93069736e-08
9.373567752e-08
8.783091434e-08
8.1581638e-08
7.532886306e-08
6.85875991e-08
6.184702772e-08
5.512129018e-08
4.836431215e-08
4.173876727e-08
3.598421879e-08
3.015472052e-08
2.509384241e-08
2.126667614e-08
1.784409605e-08
1.545328474e-08
1.452912086e-08
1.503008819e-08
1.712502237e-08
2.05239481e-08
2.447025999e-08
2.784493971e-08
2.985436527e-08
3.014815696e-08
2.909202899e-08
2.730795874e-08
2.536810427e-08
2.374474214e-08
2.270784663e-08
2.229339291e-08
2.25468699e-08
2.333232025e-08
2.46787468e-08
2.659983157e-08
2.911269861e-08
3.246088805e-08
3.678265681e-08
4.237332131e-08
4.963194069e-08
5.876081626e-08
7.048437383e-08
8.519304427e-08
1.033943595e-07
1.2564803e-07
1.516359257e-07
1.814321559e-07
2.130558786e-07
2.522744451e-07
2.851460955e-07
3.234304756e-07
3.686832433e-07
3.993201613e-07
4.323556589e-07
4.636332211e-07
4.853596404e-07
4.995806387e-07
5.081797728e-07
5.114290394e-07
5.055541725e-07
4.940053164e-07
4.709714796e-07
4.462007477e-07
4.134578744e-07
3.724278697e-07
3.308541049e-07
2.893435574e-07
2.463678543e-07
2.0492254e-07
1.671463585e-07
1.336008717e-07
1.046285555e-07
2.773212652e-08
2.082051975e-08
1.529568023e-08
1.108278097e-08
7.960831295e-09
5.690744552e-09
4.107289002e-09
3.022680313e-09
2.299583308e-09
1.845098768e-09
1.579915951e-09
1.456886167e-09
1.457698559e-09
1.601170055e-09
1.96600119e-09
2.640842025e-09
3.598510211e-09
4.625775304e-09
5.415767634e-09
5.800741029e-09
5.831461479e-09
5.692539621e-09
5.664351584e-09
5.905112449e-09
6.569539748e-09
7.814736532e-09
1.003408782e-08
1.299926662e-08
1.732509507e-08
2.353671957e-08
3.14279955e-08
4.210020823e-08
5.433535377e-08
7.112096078e-08
8.88368033e-08
1.090807707e-07
1.333530611e-07
1.59217111e-07
1.872271166e-07
2.162675579e-07
2.471232384e-07
2.787372555e-07
3.106763291e-07
3.435155661e-07
3.754312331e-07
4.080141345e-07
4.40332979e-07
4.716431403e-07
5.033569235e-07
5.329911341e-07
5.623275631e-07
5.905929163e-07
6.161992262e-07
6.415641021e-07
6.63793957e-07
6.847080107e-07
7.038100011e-07
7.185518735e-07
7.324187684e-07
7.425422883e-07
7.507223494e-07
7.573374529e-07
7.592906164e-07
7.606969779e-07
7.586944118e-07
7.54450513e-07
7.489856759e-07
7.389109043e-07
7.286855275e-07
7.158172184e-07
7.008252846e-07
6.851074689e-07
6.661293399e-07
6.471481005e-07
6.266175623e-07
6.044196185e-07
5.819100576e-07
5.572349211e-07
5.322811672e-07
5.053277643e-07
4.745876789e-07
4.495744483e-07
4.258328177e-07
4.068019792e-07
3.861601893e-07
3.607701229e-07
3.323888069e-07
3.055236156e-07
2.84769518e-07
2.681988379e-07
2.470411156e-07
2.243069341e-07
2.02508397e-07
1.845114682e-07
1.673630126e-07
1.491765576e-07
1.320797122e-07
1.170542573e-07
1.028238807e-07
8.956138461e-08
7.790384206e-08
6.707644704e-08
5.724722729e-08
4.851205178e-08
4.066169208e-08
3.377930193e-08
2.779300038e-08
2.261418389e-08
1.820600929e-08
1.446525725e-08
1.132934105e-08
8.746290565e-09
6.629825143e-09
4.93862373e-09
3.60668104e-09
2.582609201e-09
1.825661571e-09
1.281275543e-09
8.675555343e-10
6.074553457e-10
4.508566559e-10
3.403762277e-10
2.821897966e-10
2.618302891e-10
2.571065413e-10
2.676529063e-10
2.955005636e-10
3.353155579e-10
3.846260568e-10
4.473378648e-10
5.229844727e-10
6.182666593e-10
7.579091839e-10
8.965460183e-10
1.095459838e-09
1.31835801e-09
1.625905016e-09
1.965645025e-09
2.335098241e-09
2.832692115e-09
3.464326946e-09
4.114284928e-09
4.926735488e-09
5.827946038e-09
6.819322265e-09
7.936826343e-09
9.157965568e-09
1.046702759e-08
1.182045592e-08
1.32872325e-08
1.483238604e-08
1.639533846e-08
1.803168209e-08
1.966703303e-08
2.135686914e-08
2.307774105e-08
2.476369357e-08
2.653487252e-08
2.819235051e-08
2.986008834e-08
3.151033472e-08
3.303943564e-08
3.460594755e-08
3.607990216e-08
3.751219188e-08
3.89474971e-08
4.01912326e-08
4.148954332e-08
4.267829293e-08
4.378222699e-08
4.489078259e-08
4.579526698e-08
4.675197008e-08
4.762911217e-08
4.841960386e-08
4.925859871e-08
4.99244134e-08
5.065239709e-08
5.134383587e-08
5.194280171e-08
5.262802418e-08
5.31735795e-08
5.378362391e-08
5.439929008e-08
5.490444865e-08
5.552619689e-08
5.603028972e-08
5.658297696e-08
5.716468583e-08
5.758257667e-08
5.811287507e-08
5.8517675e-08
5.89322964e-08
5.939660312e-08
5.966930875e-08
6.008401776e-08
6.041188203e-08
6.074846417e-08
6.118612946e-08
6.140787995e-08
6.179569863e-08
6.212636543e-08
6.243083866e-08
6.28435083e-08
6.305903958e-08
6.342016516e-08
6.374870473e-08
6.401595153e-08
6.439641637e-08
6.457995277e-08
6.486992713e-08
6.514178686e-08
6.530724718e-08
6.559198941e-08
6.570303074e-08
6.588738452e-08
6.607649637e-08
6.614867204e-08
6.64039574e-08
6.655879355e-08
6.677856805e-08
6.704594444e-08
6.715670556e-08
6.742261451e-08
6.758530556e-08
6.779030402e-08
6.806961182e-08
6.816616116e-08
6.842460595e-08
6.860489311e-08
6.879858063e-08
6.907138298e-08
6.912297503e-08
6.931428641e-08
6.936129757e-08
6.933669735e-08
6.925653227e-08
6.900787695e-08
6.875686865e-08
6.844960564e-08
6.932745366e-08
6.811324874e-08
6.806919437e-08
6.804821255e-08
6.802274045e-08
6.814473025e-08
6.816956935e-08
6.822964568e-08