/*--------------------------------*- C++ -*----------------------------------*\
| =========                 |                                                 |
| \\      /  F ield         | OpenFOAM: The Open Source CFD Toolbox           |
|  \\    /   O peration     | Version:  2212                                  |
|   \\  /    A nd           | Website:  www.openfoam.com                      |
|    \\/     M anipulation  |                                                 |
\*---------------------------------------------------------------------------*/
FoamFile
{
    version     2.0;
    format      ascii;
    arch        "LSB;label=32;scalar=64";
    class       volScalarField;
    location    "1000";
    object      omega_0;
}
// * * * * * * * * * * * * * * * * * * * * * * * * * * * * * * * * * * * * * //

dimensions      [0 0 -1 0 0 0 0];

internalField   nonuniform List<scalar> 
162063
(
107345.8783
112584.3676
116708.1679
119347.2474
120106.2487
119065.3355
116328.5501
112196.1967
107203.4308
101850.6497
96674.99063
91965.51241
87857.57646
84528.10304
81957.4263
80253.84075
79491.75117
79674.28431
80795.31894
82543.05702
84678.9651
87056.00963
89847.59892
93392.98853
98185.43595
104604.8559
113088.2171
122463.5824
132847.4643
143266.2147
151826.1227
158328.1199
161841.4106
162784.2851
161113.5281
157438.0676
152407.2012
146570.7045
140320.5693
134189.2516
128177.5762
122570.5838
117456.3931
112723.8045
108575.2038
104750.431
101313.0575
98269.65899
95437.11454
92981.75319
90713.76471
88633.18903
86789.96035
85029.82312
83492.78243
82049.04561
80716.693
79583.61157
78488.38277
77552.50274
76677.14986
75852.48093
75186.25023
74513.31837
73951.79623
73443.9542
72958.036
72617.01959
72253.54687
71973.27006
71750.20066
71539.69728
71446.18472
71339.35836
71296.00199
71316.92142
71366.0581
71543.39232
71759.2134
72061.92614
72444.61451
72881.04188
73437.94821
74070.01548
74734.43458
75261.86296
75634.398
76109.22609
76799.61399
77787.16117
78532.91087
79102.64335
79729.51092
80536.52282
81472.12043
82248.4657
83031.06394
83933.76475
84644.91246
85319.54739
85995.65054
86604.78909
87183.47957
87628.28077
87987.24059
88238.24496
88337.19338
88373.87953
88308.05072
88217.69612
88117.35551
87998.30397
87945.45768
87955.92262
88056.7107
88235.5543
88429.41353
88663.52373
88738.22284
89091.49611
89887.71101
90000.50287
90491.20306
91690.63282
92523.79289
93608.07445
95323.25592
97362.57044
99648.24152
102284.8138
105514.9668
109227.768
113715.0174
118429.1001
123926.8427
129827.6441
136367.3252
143351.4311
150678.938
158397.2182
166304.8552
173995.5496
181464.8222
188515.6887
194903.6852
200537.1205
205309.8249
209043.356
211772.8928
213412.194
213980.4944
213616.0646
212237.0994
210115.186
207230.2152
203705.849
199826.7433
195433.8054
190885.2256
186102.8264
181152.8647
176354.425
171395.0591
166612.0389
161906.7628
157247.568
152985.3379
148703.5196
144682.5332
140868.5885
137111.3389
133749.8595
130375.275
127202.0928
124222.8624
121244.8763
118577.6612
115887.3045
113321.4624
110937.8445
108512.1879
106323.1342
104115.067
101976.5701
100024.0273
98012.59417
96199.2153
94396.19529
92635.99366
91086.75275
89469.84854
88021.00351
86597.77154
85177.21362
83962.21904
82655.78655
81465.37375
80290.66001
79052.03312
78015.1806
76867.37499
75809.80389
74799.70909
73747.40455
72871.86401
71920.98869
71037.50675
70225.8644
69368.83796
68667.48853
67917.83871
67213.3316
66593.56277
65917.79908
65364.88948
64774.86216
64201.08813
63721.70911
63179.28463
62737.06314
62276.20585
61815.25708
61461.31585
61039.67643
60696.7141
60350.77578
59989.6464
59746.15106
59434.03489
59182.82381
58944.07703
58680.09002
58542.3797
58355.34247
58230.72193
58165.2977
58053.01358
58071.77796
58103.39429
58222.6213
58447.39323
58343.74473
58359.63794
58368.44062
58449.04712
58488.60369
58593.47556
58709.41573
58797.69603
58978.88257
59116.18461
59315.0255
59540.14165
59721.17518
60015.2189
60268.63321
60571.58911
60917.98011
61199.01454
61609.71862
61980.64495
62382.1517
62846.99181
63227.16265
63761.19425
64265.69521
64786.9391
65392.54694
65917.16549
66584.5867
67239.03939
67893.22934
68652.18913
69333.93602
70146.96227
70966.45444
71767.59831
72697.92652
73557.53478
74537.17147
75547.93622
76519.92116
77651.28619
78721.69544
79900.12484
81136.37126
82313.03679
83682.49015
85000.73966
86412.57759
87917.68404
89341.07292
90996.99806
92618.82266
94314.46621
96144.06343
97849.92116
99835.2154
101779.7152
103781.0286
105961.5442
108056.0857
110428.846
112832.8381
115289.7518
117990.6879
120590.9014
123539.0047
126562.7797
129642.3322
133016.8842
136386.5814
140060.7727
143901.8458
147817.6434
152123.7859
156496.136
161200.435
166180.8057
171271.8708
176854.0071
182579.0041
188659.2783
195076.0843
201597.0256
208550.7367
215572.3145
222682.5916
229776.9362
236452.6559
242688.4497
247891.1272
251612.9118
253214.4558
251927.9713
247005.9926
237463.0956
223085.5687
204346.5395
181433.9929
156758.5006
133682.19
116008.7285
103513.0288
94714.28456
89244.64838
86106.85429
84535.15087
83902.64177
83761.77002
83768.45636
83902.92527
84126.17585
84437.13947
84878.35669
85309.01725
85781.50757
86186.25291
86526.03056
86850.51389
87021.65128
87053.24329
86870.79804
86399.28297
85724.16536
84660.87047
83283.8
81610.25581
79643.27197
77601.56149
75469.62022
73455.87531
71629.23383
69634.93714
68101.92756
67029.00851
65541.13163
64587.5719
63943.06627
63370.43659
62945.84561
62826.83177
62898.68234
63236.52236
63847.40998
64690.35584
66013.74736
67667.44129
69787.16692
72545.68033
75830.31554
79825.386
84447.274
89733.43713
95519.29763
101408.1074
154211.731
158028.9239
160317.9248
161036.8311
160005.669
157574.6977
154044.2118
149663.3307
144889.7992
140094.2285
135643.9322
131699.2472
128248.8551
125467.6013
123339.0572
121976.3879
121483.9205
121818.7783
122939.7571
124451.1393
126199.5928
127999.0956
130054.6733
132418.0832
135391.428
139287.5152
145403.7801
151630.7851
159434.9645
168921.1518
177065.2938
184993.0824
190497.2274
194837.8665
196570.8787
196398.6083
194699.9938
191711.6781
187698.6078
183245.5688
178342.2149
173364.7571
168503.3815
163694.2564
159263.7903
154963.8745
150935.1142
147231.4379
143650.7503
140459.6161
137408.2196
134583.1914
132048.8481
129551.4658
127358.0753
125245.456
123254.1349
121576.9511
119906.9296
118488.5312
117157.7873
115873.7087
114876.8984
113847.7434
113000.3677
112262.1129
111527.2289
111067.385
110554.2012
110172.5032
109908.2464
109630.1946
109591.3039
109492.1163
109501.3657
109607.0206
109729.1399
110075.5046
110404.3675
110892.9553
111438.9903
112071.7422
112881.4186
113809.7874
114802.1104
115424.8116
115697.3326
116150.3042
117072.6776
118682.8493
119603.9492
120069.5439
120606.3519
121633.3188
122879.2326
123649.7869
124391.5286
125454.7369
126149.2631
126760.4376
127520.6472
128133.0267
128733.071
129201.3572
129570.6793
129866.9879
129987.2416
130078.1986
130061.0221
130024.6274
129982.6542
129891.615
129868.8285
129872.8871
129952.1792
130090.3152
130198.9978
130320.2134
130020.499
130259.5045
131373.543
130802.2019
130912.8474
132313.8625
132592.1583
132958.7069
134278.7768
135806.5249
137222.9437
138831.5806
141033.3092
143537.6152
147204.3341
150288.1121
154616.7899
158896.7726
164093.2682
169677.0498
175443.0359
182195.7901
189583.7219
196713.2761
204134.7301
211583.4711
218686.6647
225534.8729
231971.7977
237698.5804
242753.1632
246982.6269
250369.6161
252911.2814
254506.3499
255331.8521
255314.4288
254544.8087
253207.8905
251200.3526
248796.7126
245968.9213
242733.2907
239399.2561
235706.7871
231948.4582
228079.0056
224053.2402
220270.2272
216312.8479
212500.4014
208788.8841
205044.4423
201628.7761
198124.8628
194759.3952
191542.1845
188263.5196
185274.4118
182210.1292
179219.669
176406.9357
173483.9972
170807.5523
168063.6228
165349.5193
162846.6109
160211.2355
157810.3507
155380.9429
152979.1918
150836.0556
148582.505
146535.2205
144505.3513
142455.6491
140675.0193
138751.1161
136975.3601
135219.9137
133384.1309
131833.0891
130122.6996
128525.9824
126988.2058
125377.7614
124015.5066
122533.1405
121135.6283
119839.7946
118471.781
117331.871
116120.2344
114972.9027
113959.6787
112862.5791
111953.4839
110988.8233
110040.1307
109230.6279
108321.4928
107564.28
106783.5181
106000.7153
105385.8667
104672.0364
104079.1588
103484.2607
102865.8994
102431.2314
101901.5672
101467.0783
101055.421
100607.6787
100352.9484
100034.3366
99819.55588
99749.47835
99518.89637
99505.00639
99518.94097
99673.14966
100175.4415
99763.09805
99756.3888
99772.62407
99904.52696
99989.61476
100180.9188
100396.0248
100580.0065
100906.0673
101171.2703
101539.5399
101950.818
102301.9833
102832.7524
103302.7457
103855.2699
104475.767
104992.9615
105711.2295
106367.0849
107075.7522
107883.2443
108567.5676
109495.8434
110380.2695
111297.5805
112338.0375
113255.9082
114394.8343
115510.0226
116629.1144
117900.4957
119054.3464
120405.2199
121758.6395
123085.5613
124595.9814
125996.9765
127568.1562
129175.0963
130720.0974
132487.1855
134155.2579
135962.7899
137844.1853
139625.0069
141669.3302
143621.6081
145691.6951
147869.3575
149909.8927
152257.6496
154522.2983
156873.3999
159356.3454
161655.7663
164292.4018
166868.2154
169487.1901
172304.1274
174963.2844
177937.3702
180896.0142
183876.2575
187073.3889
190185.0377
193507.1948
196891.562
200266.2349
203919.7503
207475.2281
211269.4821
215151.8221
219006.0009
223156.3157
227242.36
231523.4931
235924.4495
240253.8234
244861.7646
249404.4181
254020.0335
258697.852
263119.8393
267627.0535
271789.8887
275554.1843
278829.128
281073.758
282381.1389
282113.0596
279975.193
275491.4487
268141.7936
257894.6346
243671.3062
226694.8233
208874.4967
188918.4463
170991.5656
156107.4886
144929.8155
137045.9785
131657.5566
128220.7322
126331.727
125424.7395
125187.6893
125311.4694
125472.0175
125765.3571
125999.7067
126406.5838
126838.5932
127313.5249
127788.3034
128212.3572
128574.0438
129023.1845
129216.043
129423.3447
129286.4917
128990.6717
128492.6006
127571.9473
126386.0396
124797.9395
122917.5724
120842.7216
118588.7261
116396.0721
114450.1609
111731.6411
109858.994
108888.4666
106516.6022
105245.2595
104629.358
103814.4087
103138.9694
103044.2788
103293.7626
103870.1416
104818.1537
106090.5779
108218.6884
110744.1861
113684.5562
117485.4444
121883.1168
126852.9008
132145.0723
137852.5152
143720.2656
149173.2717
219754.4033
221962.9518
222411.214
221650.5664
219512.206
216499.8853
213053.178
209071.493
204944.2189
200901.8619
197240.3436
194038.8853
191198.6958
188931.9957
187196.2472
186124.4048
185839.8344
186237.6151
187228.5742
188359.295
189759.3623
191180.8676
193015.5552
194793.8405
196591.2592
198597.8358
203692.8421
206899.3449
212246.7554
220493.3238
226698.1199
234493.3086
239364.8057
245491.6191
248479.4149
250281.4056
250918.0803
250356.3325
248641.0996
246295.1101
243170.5905
239670.367
235975.8586
232033.3461
228260.3426
224364.8357
220553.2322
216926.7574
213248.3789
209884.7474
206548.657
203372.8832
200495.8213
197574.681
194958.2908
192386.0601
189917.6824
187814.712
185682.0103
183843.3992
182095.7808
180406.6581
179098.3266
177734.2979
176605.6823
175609.4988
174632.1108
174032.4629
173352.6979
172853.9879
172508.3798
172157.2107
172125.907
172015.6479
172048.6764
172209.8998
172383.2651
172838.0354
173253.7046
173846.0153
174519.4908
175275.3876
176309.2662
177618.4181
178921.4338
179514.7601
179276.1737
179388.8793
180571.8394
183206.2366
184224.5054
184127.2204
184215.3386
185521.9901
187225.1106
187711.315
188139.5699
189431.7515
189972.3011
190329.1705
191178.1657
191668.1156
192235.7119
192696.5614
193023.8393
193355.0991
193464.1878
193589.9959
193581.047
193571.386
193576.8071
193498.029
193467.8614
193495.041
193548.1192
193664.9024
193718.3161
193764.0172
192872.6471
193083.2105
195081.7976
193339.3122
193064.5991
195361.0802
195018.3843
194624.2927
195926.9432
197300.2749
198032.2759
198745.3636
200259.3647
201641.7545
205374.9755
206583.1593
210348.0727
212861.3369
216956.9348
221201.9528
224555.2495
229985.8828
236788.8492
242153.3616
248681.7397
255422.4896
261784.9637
268474.452
275228.8858
281444.476
287337.8569
292795.3221
297742.089
302089.287
305644.0602
308631.9507
310881.7672
312405.7465
313370.9634
313585.6447
313355.0953
312680.1379
311451.4062
310024.4612
308068.555
305900.5731
303466.8619
300704.8078
298065.183
295078.9224
292116.7019
289142.3605
286023.8665
283172.0115
280123.9107
277143.6358
274253.2765
271218.744
268449.2484
265524.6371
262630.0993
259877.9033
256948.0578
254249.8492
251419.9162
248569.9921
245906.7797
243037.397
240389.7598
237659.3516
234908.1001
232439.8669
229799.4711
227382.8383
224961.4738
222489.3665
220339.9789
217991.7702
215814.3812
213649.0566
211363.9203
209427.6366
207269.0712
205233.5984
203260.1488
201170.9492
199392.078
197436.9623
195568.9739
193819.3895
191959.2082
190397.9395
188732.8549
187142.7432
185732.2896
184211.5352
182950.5195
181623.7843
180313.7378
179177.418
177886.3806
176794.4085
175671.795
174543.8115
173646.5652
172618.3841
171752.6732
170887.7578
169993.9674
169351.5809
168585.8158
167945.6938
167338.5625
166697.2491
166312.2696
165856.9722
165562.8188
165604.3688
165160.4574
165127.6358
165095.1555
165281.2699
166407.5654
165221.3096
165227.7206
165248.4453
165471.0292
165637.2116
165938.5138
166287.1127
166597.3374
167104.3768
167536.7975
168114.0933
168753.7216
169315.2898
170126.4995
170857.6341
171705.306
172646.6799
173434.9337
174483.7531
175444.5441
176492.7579
177684.0555
178715.4256
180090.3206
181400.7014
182752.3193
184266.2443
185607.0882
187248.6603
188849.9184
190449.7242
192245.9805
193872.1495
195759.3366
197637.9029
199470.7531
201533.3073
203432.1413
205548.5758
207691.0825
209736.769
212053.4124
214216.6172
216548.1054
218947.9474
221197.0665
223756.2085
226172.33
228712.919
231354.6724
233795.04
236586.2201
239241.4317
241960.494
244793.8586
247355.9511
250290.4273
253105.1549
255927.1826
258914.0125
261668.635
264742.1215
267736.3525
270691.6531
273814.528
276752.6029
279934.8265
283058.4249
286088.8453
289334.1866
292367.9896
295562.8256
298734.9652
301753.546
304962.56
307959.3736
311024.1993
314049.2792
316831.0855
319713.0537
322328.1184
324810.5242
327118.4519
328938.4696
330597.3893
331686.942
332090.7341
331764.9887
330209.7971
327611.5677
323496.5522
317642.1363
309953.2328
300106.1282
289094.1825
274046.4547
258942.2042
246319.6578
230691.2558
218465.9676
209071.259
201715.5389
196718.7764
193002.7655
190727.2846
189328.2885
188754.9292
188621.4532
188830.3225
189025.3635
189354.3055
189598.9332
189992.3253
190421.326
190845.5945
191297.8792
191698.1068
192081.6292
192563.7418
192806.5099
193043.9069
192991.8538
192809.2171
192501.6541
191775.0134
190802.0356
189451.7783
187784.5768
185918.7846
183787.1143
181778.7123
180315.3502
176655.62
174824.8781
174889.9357
171298.2087
170053.9213
170107.1377
169232.0058
168225.5994
168302.4428
168956.8894
169827.714
171040.4967
172485.1697
175606.2247
178846.817
181891.3758
186181.9614
191244.6348
196437.6931
201299.6105
206446.8695
211646.6797
216057.3406
316540.7491
317448.9553
316262.8723
314605.7239
311983.6943
308976.6298
306267.2331
303052.649
299702.0011
296412.3882
293469.3022
290928.6251
288602.6048
286781.284
285377.4545
284532.8948
284399.1294
284785.0982
285503.2266
286000.7261
287049.2078
288217.7695
290415.418
292054.3018
292953.7391
293051.6618
298758.452
298656.0401
302072.8828
310144.9565
313825.8682
321643.1917
323852.2131
331616.3657
333903.4047
336146.098
337747.5427
338559.2002
338355.738
337637.8372
336050.951
334007.7544
331644.871
328860.7523
326154.3105
323131.5847
320053.0739
317046.5867
313821.9911
310845.1427
307754.6115
304722.8411
301967.4913
299059.7445
296442.8217
293795.8275
291199.4847
288994.8466
286675.5591
284669.9732
282728.6475
280827.2009
279383.2481
277823.8489
276531.0418
275372.6338
274230.0014
273561.4266
272755.8933
272164.2505
271743.8216
271310.5241
271276.6819
271117.3834
271137.7243
271298.1686
271452.237
271943.2403
272341.4542
272940.9081
273628.6431
274399.1861
275605.4806
277431.6679
279125.7634
279435.0587
277996.97
277227.7364
278743.8195
283311.2444
284315.4728
282919.5954
281954.5512
283784.0268
286388.4217
286184.659
285918.7539
287745.0666
288019.0366
287876.8008
288949.9116
289196.6462
289703.186
290169.5471
290407.4026
290798.5444
290864.833
291032.5433
291019.8563
291033.4663
291092.0663
291012.2848
291019.4986
291024.0917
291058.4195
291170.5036
291170.019
291148.2517
289183.5607
289445.7649
293345.8397
289452.6254
288634.8668
292953.8363
291698.5455
290233.0083
291995.9227
293629.1069
293711.6256
293501.6778
294607.4159
294796.6935
299931.1471
298640.2159
302897.9074
303322.6516
306994.1777
310457.8007
310283.9588
314574.1422
321882.432
324381.916
330002.2018
335661.9737
340209.0832
345955.5432
352313.6392
357885.6483
363313.1239
368803.384
374167.7959
379116.2744
383383.7481
387448.8208
390975.9378
393887.254
396353.3272
398042.1741
399337.9994
400401.1289
400821.9605
401123.9357
400777.9125
400200.977
399260.9475
397896.9266
396604.1841
394808.1783
392942.7448
390977.0013
388761.6754
386792.0531
384513.6013
382248.4415
380026.9186
377580.0164
375392.0863
372966.6253
370526.8426
368211.9973
365643.6767
363307.7826
360770.9525
358170.7551
355743.5849
353015.9238
350493.6842
347810.5944
345042.975
342570.6612
339845.6282
337352.5665
334820.4073
332198.3818
329953.5774
327445.7176
325124.8576
322797.0607
320297.8544
318211.3267
315824.8901
313562.3048
311359.1301
308991.947
306996.98
304758.9194
302597.9363
300557.552
298352.2747
296509.5362
294520.6621
292606.6631
290910.2234
289070.7237
287567.7967
286003.3358
284477.4316
283152.5459
281576.5188
280222.9344
278825.0319
277419.0103
276299.5187
275014.0596
273929.5977
272839.3821
271722.7396
270916.7212
269957.7399
269156.3073
268381.5337
267590.5921
267113.8859
266552.6273
266233.0931
266693.1867
265956.7198
265869.8162
265772.0388
265994.1465
268469.1674
265586.8998
265680.9458
265688.841
266031.9168
266304.5318
266709.6183
267201.7305
267634.8591
268313.1
268909.0219
269680.6894
270535.9118
271285.8779
272350.46
273317.6112
274429.129
275654.7231
276623.99
277894.1035
279072.3562
280389.5751
281899.2388
283207.268
284955.468
286613.2666
288311.92
290202.7795
291862.9118
293901.1979
295873.6569
297829.9866
300016.2368
301969.9784
304245.7787
306491.1766
308658.5597
311093.0292
313302.2353
315771.1123
318246.6679
320575.3537
323215.4815
325639.2399
328251.8991
330913.6096
333355.3785
336149.0188
338736.0775
341443.8943
344233.3309
346740.4304
349642.4172
352337.8618
355063.0826
357873.7166
360318.3695
363170.906
365836.1672
368449.7713
371208.6663
373643.8301
376412.33
379027.0521
381528.8406
384169.9109
386516.5739
389090.2225
391538.4902
393796.2352
396220.6406
398318.1612
400527.2874
402622.9013
404444.0753
406400.4854
408016.6352
409617.7254
411076.9192
412137.4927
413240.8938
413935.3449
414395.5167
414595.34
414157.5787
413573.6421
412418.1382
410408.9114
407773.0248
403898.7641
399305.6468
393536.2304
386487.2206
378355.7979
368842.2615
360404.2935
345505.3158
333949.4062
328170.557
315108.6732
306545.4105
300813.5881
295467.8049
292322.5149
289393.4721
287878.9609
286587.0994
286265.6836
286069.027
286318.1969
286462.3904
286817.353
287013.189
287378.1994
287777.4737
288139.7425
288568.768
288919.2786
289304.4465
289806.0364
290049.0593
290309.7355
290270.8761
290161.4521
290003.6005
289423.2461
288660.8399
287537.8818
286132.3385
284574.5481
282695.7921
281071.7695
280823.9301
275423.1459
273915.9197
276339.9883
270508.2266
269545.4085
271324.1138
270404.8741
268581.531
268920.7715
270341.6295
271442.5244
272548.3524
273478.5788
278229.8782
282017.7348
283707.6784
287932.7071
293690.9977
298607.9339
301875.9818
305870.372
310443.1225
313943.2489
465843.1389
465813.5969
462836.0222
460706.6438
457976.5558
455287.4777
453900.7854
451690.5707
449129.911
446522.7212
444202.1374
442240.7884
440324.4148
438878.3662
437741.188
437063.0046
437039.2468
437358.9813
437620.2011
437046.3443
437718.2677
438720.5118
442133.9253
444069.6164
444024.5217
441394.1015
450064.7932
445193.6881
447051.6947
456978.308
457596.7407
466868.8202
464311.0553
475449.0112
475318.964
477025.7116
478528.871
479804.6034
480296.8424
480518.0875
479886.2699
478872.7422
477535.7534
475724.7657
474021.8361
471877.7025
469628.7869
467396.4114
464833.4742
462508.3149
459939.5986
457364.1196
455031.3341
452446.4292
450153.6954
447735.6072
445322.6431
443315.1246
441086.019
439182.8919
437282.6739
435400.6574
434028.1216
432450.7003
431160.2076
429963.3229
428780.8685
428148.8164
427289.3009
426666.5728
426189.5454
425694.1351
425666.269
425432.8899
425417.2787
425523.9556
425605.287
426073.2687
426364.819
426896.0959
427514.0138
428232.6156
429647.5275
432413.2687
434825.964
434532.7028
430794.0364
428301.2742
430427.5088
438753.4052
439701.1672
435831.1539
432859.9142
435815.6569
440292.9714
438760.3973
437218.5331
440281.505
440168.6342
439143.9693
440782.1516
440622.1844
441057.5728
441602.1936
441696.2851
442217.8497
442207.9053
442446.8406
442418.0706
442458.3075
442586.7735
442491.5041
442532.8083
442520.7989
442542.097
442668.0424
442607.7028
442521.3267
438528.5186
438953.7479
446647.4504
438666.0033
436932.575
445319.3414
442467.8926
439187.981
442161.2682
444612.5757
443885.7794
442455.0744
443416.3958
441984.3599
450723.4999
445451.8512
451901.1092
449354.4675
453658.5498
457336.0671
451533.0778
455163.7318
465509.2407
463457.3882
468993.8928
473868.9457
475600.57
480231.7399
486350.8716
490651.5363
494601.8553
499408.7238
504572.545
509212.4597
513079.9236
517260.3
521176.0031
524550.6269
527586.9651
529820.9424
531604.2102
533794.1763
535088.8706
536628.8111
537367.5996
538002.1157
538217.1666
537991.4247
537889.3309
537144.966
536286.1116
535268.6768
533920.284
532860.9933
531377.8716
529888.7145
528420.8626
526649.5739
525179.1413
523383.6622
521548.5915
519843.6578
517808.5288
516043.9627
514004.1231
511868.7289
509935.6218
507612.5671
505496.4389
503129.2733
500607.3014
498398.3771
495835.054
493519.0859
491116.7833
488583.558
486495.7435
484064.1763
481845.4807
479595.2528
477125.0451
475147.4077
472773.8473
470525.5976
468326.552
465918.0611
463955.8947
461670.4289
459453.1498
457343.8651
455003.5888
453087.3759
450966.0397
448921.3376
447122.3309
445144.434
443584.819
441975.3247
440486.4676
439241.5606
437575.5348
436106.9575
434558.0843
433010.3244
431794.7599
430369.8258
429185.6041
427960.3804
426730.126
425860.9328
424794.8083
423925.3711
423039.6122
422179.7511
421690.8899
421071.8497
420814.629
422300.3502
421021.477
420901.3713
420711.6924
420964.9009
426201.5439
419781.9771
420139.5988
420079.1652
420571.4317
420963.4806
421420.2217
422038.2916
422544.3821
423339.4116
424050.2353
424942.5515
425950.4083
426799.9092
428025.4648
429142.432
430411.4728
431808.4946
432725.6276
433978.1692
435202.0613
436631.4043
438310.7599
439729.1652
441682.2837
443527.1262
445393.5646
447478.3461
449260.328
451498.393
453646.4284
455745.5133
458106.1025
460160.3894
462598.8805
464982.336
467238.4916
469801.6765
472068.1356
474636.4708
477187.5572
479525.7365
482225.3208
484636.8727
487255.798
489901.7805
492242.0344
494993.3051
497466.0932
500053.8853
502706.4347
504978.6535
507711.8715
510154.7328
512592.6422
515096.6379
517123.2062
519624.228
521872.7329
524012.4227
526312.282
528180.1119
530426.752
532447.9126
534283.9519
536260.5088
537837.9713
539653.1905
541291.6271
542648.3623
544178.0646
545269.2903
546479.0603
547522.5548
548183.434
549004.8174
549384.9581
549735.4079
549907.4248
549567.4136
549338.4647
548627.4631
547681.6627
546524.6688
544677.997
542940.7798
540897.7047
537633.5541
534175.8998
529512.2327
524599.9976
518947.556
512425.8243
505477.7771
497669.616
493984.32
477378.7502
469559.9872
472009.705
458692.6166
452041.5086
449102.5434
444355.1478
442728.2335
439942.4968
439177.8703
437641.3336
437716.8581
437297.0124
437637.1628
437654.5903
438061.6435
438171.2587
438502.7781
438875.3957
439171.2921
439595.9859
439876.6619
440255.3619
440777.0524
440999.3453
441280.8098
441195.8272
441106.3265
441052.7415
440556.1176
439972.946
439023.1536
437859.9499
436635.3024
435039.2491
433903.5624
436028.393
427052.4452
426106.6634
433078.5945
422790.8144
422299.9422
427578.6627
426423.8875
422599.5115
423259.7396
426131.675
427288.0305
427556.872
426692.3417
434953.3632
439279.2049
436924.4186
440925.2326
448559.4673
453066.0142
453136.275
455755.9651
460611.7089
463844.5217
702825.1949
702006.4371
696301.5217
693890.3813
691177.7205
688916.5982
689624.0444
688699.8662
686924.9813
684923.2695
683139.5934
681695.6965
680084.2223
678949.6968
678015.0157
677447.4237
677513.5625
677733.24
677256.0828
674821.5293
675058.0788
675958.1061
682027.6363
684846.2016
683470.9232
676126.4206
691697.4367
678643.6704
678965.8012
694173.8417
690452.8488
703928.3046
693282.0243
711831.8174
707176.2881
707766.5014
708426.0557
709623.9375
710284.9879
710938.4797
710749.6827
710335.2865
709624.4438
708467.3436
707528.6791
706045.2717
704497.1537
702943.6496
701002.0313
699350.9769
697327.5241
695299.7222
693496.6359
691344.0596
689536.4706
687473.009
685410.1078
683765.4211
681786.3173
680164.9713
678434.7234
676732.4725
675580.7269
674105.8633
672953.8558
671792.4255
670673.9961
670176.1415
669315.9468
668730.0849
668204.78
667676.0529
667685.8344
667365.5765
667317.4114
667335.0619
667324.0756
667761.8411
667899.5371
668344.5211
668870.0304
669551.0525
671376.0909
676047.5386
679979.8237
678656.6492
670629.0849
664971.7134
668315.7434
683855.4964
684799.631
676428.1966
669779.2376
675025.9169
683216.4544
679244.6747
675412.7559
681038.1447
680342.5613
677747.1514
680589.2323
679743.0856
680101.8363
680855.9984
680708.6952
681488.0526
681344.8025
681708.864
681642.0618
681716.8862
681943.5009
681812.008
681896.0745
681874.4692
681871.2828
682035.6918
681897.3262
681744.6967
673856.521
674625.3533
689694.8528
673928.4377
670531.2332
686769.3759
680971.7413
674400.1576
679877.3404
684057.9228
682067.0661
678697.6536
679810.9928
675727.4515
691953.8473
679663.3465
691156.1197
683704.4193
690255.9715
695683.6104
680114.9913
683758.7285
701762.912
691960.2402
699109.5275
704061.4362
701492.5696
705271.4799
712257.6717
715017.2765
716562.1245
720470.1582
725516.836
729368.0723
731943.624
735630.3484
739446.0372
742635.1885
745447.2227
747443.3703
748453.9879
751370.7155
752560.9123
754896.3344
756028.7666
757404.5793
758244.0652
758741.2535
759476.5341
759461.8086
759330.979
758992.3683
758281.4753
757970.2181
757107.2887
756265.1319
755436.1029
754247.448
753453.8466
752231.1236
750981.0378
749880.8563
748383.2001
747239.2908
745730.397
744128.1283
742780.2764
740961.244
739400.8969
737481.781
735359.1053
733576.137
731316.5982
729341.7725
727207.5045
724925.0817
723175.5063
720979.5665
719047.1665
717038.5494
714792.7835
713144.6537
710975.926
708950.9837
706941.5666
704700.433
703000.4095
700871.5551
698826.685
696852.8976
694584.8341
692807.7128
690734.7369
688766.9092
687055.301
685138.8373
683741.2988
682296.5652
681173.035
680402.6619
678912.4349
677502.4514
675928.363
674396.6402
673231.0971
671796.0069
670657.6336
669387.8023
668170.4656
667362.1772
666280.0862
665455.7167
664511.998
663670.9353
663269.1251
662634.8866
662543.2682
665540.4235
663867.8899
663723.1604
663381.6959
663632.5404
674339.5252
660799.8211
661787.882
661548.1384
662237.7318
662773.4955
663186.4855
663905.7007
664406.0367
665240.4272
665997.8674
666904.1414
667986.6757
668807.7543
670074.6414
671236.1605
672519.0342
673940.0062
674413.79
675296.7839
676352.1358
677682.3717
679348.5021
680665.7161
682619.8008
684483.1216
686306.6397
688386.9393
690069.2548
692287.7278
694418.3561
696429.312
698746.2697
700670.4827
703040.7597
705351.4076
707453.7459
709919.833
712010.8719
714442.9258
716852.0565
718955.2597
721491.9201
723667.7023
726064.3026
728484.9682
730490.06
732994.5294
735154.018
737418.339
739753.9753
741585.2034
743975.442
746000.9516
747982.3924
750038.2487
751476.7949
753498.7118
755230.7519
756806.0888
758584.5946
759803.7576
761490.2
762908.5133
764064.9325
765408.0234
766250.2511
767384.898
768323.4242
768886.1669
769691.7537
769958.3011
770397.9009
770669.8282
770456.9687
770507.7617
770044.9711
769589.5732
768991.5351
767786.5305
766856.5167
765430.1513
763830.6677
762167.8001
759818.2188
758062.0479
756622.9012
752779.8503
749712.1361
745286.6083
741007.3444
736447.5037
731176.0646
725952.4077
720117.5441
723389.8248
700557.499
695996.1934
710522.4625
692825.7099
686576.3208
686533.6913
680983.1669
681154.2594
677803.2617
678125.9478
675823.4163
676689.6411
675798.0807
676387.0137
676173.812
676699.6695
676679.3392
676979.6088
677349.6797
677578.7041
678030.7352
678218.751
678595.7137
679162.8847
679360.1525
679671.5399
679475.4047
679352.9964
679370.6946
678885.0043
678442.6775
677593.2274
676628.1195
675733.7509
674396.3779
673827.1909
680472.8136
664269.0166
664181.8544
679711.2748
660711.4695
660909.0237
672881.5446
671091.5034
663023.9526
664155.8947
669885.388
670869.6977
669065.2598
664118.3658
680141.1495
685249.3328
673846.63
678117.0599
690617.1341
694779.1971
688729.7082
689922.3232
696971.3891
700897.8742
1087645.502
1085849.42
1075226.495
1072495.923
1069716.221
1067872.477
1071984.996
1072857.892
1071916.139
1070467.969
1069162.041
1068207.411
1066789.233
1065911.127
1065114.38
1064602.432
1064759.001
1064857.981
1063157.586
1057421.014
1057098.774
1057945.472
1069230.051
1073881.251
1070313.632
1054338.834
1083834.021
1055825.442
1054097.977
1080731.325
1069876.032
1092357.511
1067518.554
1101082.888
1088406.853
1087263.243
1086334.617
1087186.402
1087761.09
1088588.402
1088502.885
1088401.87
1087990.97
1087213.388
1086820.585
1085735.872
1084713.339
1083657.104
1082195.505
1081140.542
1079540.557
1078028.911
1076727.54
1074997.551
1073715.92
1071989.274
1070327.79
1069102.302
1067417.419
1066171.662
1064623.243
1063179.88
1062339.088
1061012.641
1060092.753
1058970.753
1057984.333
1057712.383
1056870.849
1056386.936
1055802.001
1055269.089