/*--------------------------------*- C++ -*----------------------------------*\
| =========                 |                                                 |
| \\      /  F ield         | OpenFOAM: The Open Source CFD Toolbox           |
|  \\    /   O peration     | Version:  2212                                  |
|   \\  /    A nd           | Website:  www.openfoam.com                      |
|    \\/     M anipulation  |                                                 |
\*---------------------------------------------------------------------------*/
FoamFile
{
    version     2.0;
    format      ascii;
    arch        "LSB;label=32;scalar=64";
    class       volScalarField;
    location    "1000";
    object      omega;
}
// * * * * * * * * * * * * * * * * * * * * * * * * * * * * * * * * * * * * * //

dimensions      [0 0 -1 0 0 0 0];

internalField   nonuniform List<scalar> 
162063
(
112276.4605
117979.442
122204.3492
124466.8085
124334.3196
121915.3003
117433.4801
111585.4093
105209.0182
98936.01214
93276.07457
88390.25236
84335.15453
81122.58988
78757.80675
77336.95391
76947.18381
77612.48596
79316.57858
81657.33856
84154.70513
86477.48179
88661.52049
91314.49345
95082.11525
100535.98
107683.205
116747.2426
126791.876
136533.0568
145289.1898
151748.4011
155661.8292
156481.5966
155017.4303
151421.7034
146393.5402
140670.0794
134599.0463
128711.811
123000.9289
117732.1308
112963.0635
108571.6295
104737.3356
101201.4871
98022.84824
95213.27205
92606.21457
90365.88012
88272.83612
86351.76075
84661.26452
83050.24643
81647.75676
80339.89431
79143.87031
78144.42855
77178.82654
76352.20726
75583.56019
74865.91479
74302.82434
73740.39828
73279.71301
72873.18594
72494.49987
72255.21304
72004.01591
71827.94273
71710.544
71622.77753
71650.44851
71694.37229
71827.10972
72050.34421
72344.02803
72755.34767
73222.3864
73807.0908
74511.70969
75105.50237
75635.59279
76013.45458
76477.23375
77120.21696
77957.19796
78818.93571
79442.3026
79934.78015
80581.66867
81377.48226
82231.72369
82924.40413
83629.23618
84402.5048
85167.56741
85846.74053
86426.96445
86986.78089
87414.64269
87817.22401
88165.62432
88370.9333
88528.87135
88578.51021
88516.33029
88422.50268
88277.42249
88164.67077
88091.89198
88023.76009
88027.57553
88086.31767
88211.37984
88376.80345
88462.35475
88556.76774
89191.58615
89567.76251
89614.73343
90408.27634
91207.76951
91818.42692
93098.87919
94812.79596
96623.80746
98879.92281
101754.0672
105116.6749
109034.2833
113374.4976
118019.7802
123661.0179
129661.2027
136327.8766
143470.1707
151174.093
159219.0607
167224.1512
175117.9584
182849.3145
190083.447
196704.4811
202524.5153
207414.1337
211320.8726
214136.069
215932.9701
216632.1594
216309.4321
215133.3558
213034.893
210306.0544
206921.9984
203011.0686
198853.7838
194271.8639
189606.055
184772.7258
179823.4105
175073.3147
170191.9007
165500.5805
160909.8736
156362.5786
152225.4131
148058.4137
144150.8103
140440.4506
136781.8167
133512.9696
130222.9553
127127.3123
124219.5878
121305.4054
118696.0543
116054.1453
113533.547
111186.789
108794.0874
106631.7225
104448.8593
102332.012
100397.4565
98399.52699
96598.85909
94807.98735
93055.64017
91512.63522
89899.44739
88453.39582
87031.58937
85610.41757
84396.17764
83086.97096
81893.2886
80713.73984
79469.61069
78427.51031
77273.06011
76208.85991
75191.64202
74130.58812
73246.85321
72286.63327
71393.79176
70572.89589
69706.08685
68996.18047
68236.60572
67521.49083
66891.49701
66205.40131
65644.04261
65045.22013
64462.88457
63974.37609
63421.04623
62968.80017
62497.6426
62025.69567
61660.40093
61226.26265
60872.79644
60516.69202
60144.00895
59888.3545
59562.98541
59299.26407
59046.72037
58767.15856
58615.49887
58407.20451
58262.39105
58147.97139
58029.35407
58034.43483
58039.28823
58102.94293
58010.40762
58252.36971
58323.04705
58367.51368
58454.58971
58489.32719
58586.92606
58689.88444
58764.63825
58930.30281
59052.85806
59238.05892
59449.05379
59616.05533
59895.20197
60133.28297
60421.13807
60754.41714
61024.34315
61422.85482
61781.53343
62170.80567
62623.26582
62992.95602
63515.83802
64009.52383
64519.36871
65112.89074
65627.7884
66284.76293
66928.65952
67572.27278
68320.2158
68993.4532
69797.42645
70608.05837
71401.30919
72323.26579
73176.37853
74148.27348
75151.06437
76117.16846
77241.24454
78305.23099
79478.21708
80711.25145
81886.05548
83252.42925
84570.22177
85982.60781
87488.5258
88915.79722
90574.93586
92201.63508
93902.17493
95737.85224
97453.10106
99449.03863
101407.0482
103424.0485
105620.9334
107737.9534
110134.6871
112564.8118
115053.2252
117787.7308
120442.0838
123429.6413
126500.9826
129640.4974
133081.4998
136522.7522
140277.9336
144211.9996
148231.7879
152647.642
157142.5916
161981.3636
167106.6598
172364.8779
178116.2508
184027.1029
190295.5337
196890.7514
203596.881
210691.6278
217802.1366
224920.3862
231858.0844
238208.8366
243811.5184
248022.247
250253.2234
249801.1529
245922.1767
237646.3198
224798.6041
207206.1503
185306.396
161767.3463
138368.4619
119712.6349
106254.3937
96630.74114
90429.78101
86798.92264
84921.80363
84100.95278
83826.47585
83807.43644
83887.7529
84074.63656
84361.34365
84723.02256
85187.15259
85623.54181
86097.54071
86529.15315
86903.27975
87261.00346
87449.06227
87467.76897
87242.48719
86680.26035
85861.80476
84599.41946
82978.12904
81037.99687
78825.72076
76577.26874
74299.65007
72203.58984
70086.77811
68561.42697
67050.66913
65396.0365
64455.25272
63455.70136
62632.27787
62115.25281
61816.9524
61776.99352
61914.33588
62348.59297
63044.80141
64040.89544
65456.78755
67284.14307
69712.3678
72728.07326
76397.30965
80989.22986
86290.12861
92312.77004
98933.42682
105684.9831
159099.0973
162979.5333
165102.0322
165197.3393
163148.4668
159384.3331
154210.0223
148384.2352
142602.0438
137208.604
132477.8458
128427.5721
125006.3824
122295.1533
120315.0186
119201.5825
119071.7764
119918.006
121735.4622
124038.1095
126238.0577
128028.8543
129335.1886
130894.9242
133243.2493
136783.4983
141304.3238
147831.2825
155586.1381
163234.758
171567.9261
178601.0889
184760.3864
188176.5014
190237.5273
190161.6572
188146.7163
185010.9686
180952.8267
176520.3115
171723.4198
166930.5899
162288.1282
157751.4549
153588.9836
149574.3253
145808.5939
142352.7043
139038.827
136101.1129
133323.4359
130736.3612
128400.2959
126135.5529
124133.4273
122231.255
120481.9907
118999.1405
117563.3743
116330.312
115181.9837
114124.256
113297.9009
112484.2774
111835.707
111262.1652
110763.8657
110461.9716
110158.287
109979.0747
109871.4306
109838.7593
109955.1271
110099.8071
110379.0212
110743.9379
111227.8045
111832.1925
112528.4579
113407.4753
114500.5761
115323.9229
115955.2879
116259.2849
116665.8804
117526.7053
118799.7834
120081.1442
120762.5433
121008.7206
121711.9257
122762.6329
123882.2215
124554.4287
125170.4966
126042.2483
126890.5062
127495.5551
128030.0254
128597.9047
129001.4681
129416.9882
129783.6053
129988.6291
130180.0657
130264.8512
130233.2091
130184.7919
130081.9222
130015.464
129998.3925
129954.1901
129919.2542
129993.6644
130083.8
130183.4301
130084.4535
129895.3679
130886.9512
131144.8898
130487.992
131415.3315
132029.8747
131843.2001
132728.386
134058.8018
135040.3897
136389.4599
138426.9958
140831.5011
143785.915
146898.2555
149712.3465
154124.0711
158408.6151
163568.1958
169006.0519
175486.407
182715.5643
189836.7297
197046.5393
204790.5961
212332.2184
219738.2518
226815.3986
233331.3219
239247.2253
244423.4577
248863.4612
252396.4557
255013.4149
256847.7697
257743.1519
257919.4151
257329.1525
256026.6556
254299.9485
251944.2844
249287.9316
246252.0635
242852.3003
239448.2415
235686.9037
231908.8438
228041.6481
224038.0385
220307.8168
216400.817
212646.4345
208998.4453
205305.2013
201959.6898
198506.7709
195204.0775
192043.3639
188813.4362
185878.5593
182849.9012
179903.1238
177121.6946
174226.7878
171581.1981
168850.7582
166164.7724
163668.729
161053.9553
158655.0251
156236.4335
153837.1141
151698.6984
149441.6416
147390.6078
145353.2289
143298.6244
141513.117
139586.1107
137803.4729
136042.6039
134198.3931
132640.1697
130917.225
129308.7359
127757.0023
126130.8193
124752.6442
123253.2696
121840.3712
120528.9581
119144.4828
117989.4142
116761.1118
115594.5962
114559.2754
113441.185
112510.0907
111526.3998
110559.411
109733.1753
108803.6597
108025.7674
107224.8785
106419.6801
105783.0635
105046.0899
104431.0861
103816.5394
103175.6301
102720.0959
102169.8253
101714.663
101277.7147
100800.6922
100517.1213
100150.6354
99897.2808
99679.0447
99492.11253
99468.28355
99443.71979
99492.91077
99101.8976
99596.96716
99687.8649
99751.21213
99883.33747
99941.54504
100110.9009
100298.7443
100450.2695
100749.7278
100986.1557
101323.4925
101708.0378
102032.7129
102532.1629
102972.9357
103498.5964
104096.2857
104597.4573
105293.6845
105925.0311
106611.227
107398.9342
108064.7935
108975.0052
109839.0889
110733.5184
111756.8274
112656.2649
113776.3096
114873.2078
115969.8622
117222.1865
118356.9507
119689.5477
121027.3546
122336.8192
123832.5234
125218.6862
126778.0042
128372.6723
129903.5708
131660.0453
133319.1944
135123.2628
136997.1789
138770.8349
140810.7226
142760.0212
144826.1098
147003.0364
149045.7346
151392.6979
153661.7914
156012.422
158504.9301
160811.9985
163462.5214
166047.9496
168682.0503
171508.6299
174192.9412
177179.1852
180154.4402
183151.9408
186373.3694
189496.647
192873.3956
196285.7133
199701.9865
203401.4035
207007.0906
210865.9294
214801.0635
218719.5002
222942.5445
227091.8655
231457.1791
235918.8715
240332.8151
244995.3761
249588.388
254260.7008
258923.5006
263348.0033
267725.1865
271707.5969
275206.2753
277947.7835
279582.2611
279882.9406
278388.2686
274603.1537
268135.4224
258814.0373
245600.03
230035.4789
212087.3535
192207.5913
174614.1055
159225.5279
147444.7461
138788.008
132901.9732
128973.5551
126744.9192
125679.0776
125295.9296
125324.8085
125465.555
125711.8129
125960.6541
126306.3143
126709.9037
127130.5498
127600.8114
128071.943
128510.0525
128962.7122
129341.3953
129633.7329
129775.974
129680.352
129297.5355
128692.9499
127611.9485
126183.271
124331.9719
122099.318
119780.5748
117318.233
115065.7063
112220.7487
110659.8939
108741.3132
106195.2757
105146.8894
103726.0247
102385.5653
101676.6399
101333.1825
101312.3142
101575.6163
102335.3225
103440.0769
105109.6041
107247.5563
109984.9608
113640.0601
117878.9797
122704.2107
128472.8355
134714.8997
141230.4858
147770.9473
153814.8784
223908.1514
225907.2259
226387.995
225069.4049
222059.6737
217905.0789
212798.934
207498.2033
202585.8059
198135.3895
194298.8695
191035.4885
188205.3569
185974.0447
184338.5565
183464.1539
183506.999
184401.4083
186222.7931
188467.8961
190374.3706
191759.4305
192338.2251
193207.5221
194830.0797
197493.8787
199929.9757
205162.5062
211027.1459
216092.8293
222941.3456
228616.1789
235300.2582
238734.7021
242668.0011
244874.9472
244787.7585
243844.0826
241872.2549
239336.0321
236103.4792
232579.2349
228925.7549
225090.5819
221449.0203
217719.0016
214075.5522
210624.7792
207157.5845
204017.7402
200932.6273
198013.3689
195349.4856
192679.6095
190301.4656
187986.4292
185805.5102
183959.4064
182124.4851
180559.6082
179088.4791
177708.457
176657.1223
175592.0715
174759.3253
174031.273
173381.7669
173034.4204
172656.9688
172455.1142
172356.0392
172334.2127
172543.3654
172753.2766
173129.4083
173612.3581
174210.3305
174983.6397
175838.4019
177000.3822
178638.5059
179576.2743
180174.6721
179970.5975
180003.7187
181048.8056
183002.0283
184888.6499
185385.9243
184790.9609
185435.6281
186859.5796
188345.0866
188755.2157
188989.6873
189971.6904
190898.8402
191216.9444
191646.8217
192219.5596
192496.7622
192907.3075
193263.6051
193423.1839
193627.304
193730.6338
193724.5251
193713.2483
193637.6745
193591.2555
193603.6242
193549.3017
193486.6866
193585.8958
193650.0412
193724.7863
193405.7249
192760.0589
194658.4707
194823.8451
192963.8054
194602.2239
195270.4687
193994.54
194814.6205
196118.0411
196358.0347
196993.7431
198551.1845
200428.4547
202893.381
205284.7312
205996.9219
209844.8119
212298.2729
216228.043
219465.1572
224589.1663
231065.8424
236610.9193
241929.6139
248907.6463
255463.0442
262322.0756
269290.2189
275927.82
282293.89
288334.8457
294063.1626
299103.2812
303483.5576
307328.6291
310392.6911
312850.3786
314558.8539
315562.4246
316091.9953
315933.2738
315462.9735
314481.4826
313018.9991
311412.9695
309309.4904
307039.2487
304526.0686
301716.9375
299053.1207
296059.4764
293101.2311
290144.9191
287040.7921
284218.7568
281195.7173
278248.6707
275391.2639
272386.5586
269650.048
266750.5891
263881.5008
261151.7264
258237.6796
255559.6587
252736.6483
249899.3926
247242.8172
244381.7063
241733.1131
239004.6142
236251.4616
233783.85
231138.8888
228716.9808
226287.1593
223806.8483
221649.3891
219293.5068
217104.5107
214926.341
212623.6441
210671.8545
208492.9071
206437.6257
204443.6258
202332.6194
200532.48
198554.2726
196664.3152
194892.7014
193008.6001
191424.0825
189734.0469
188116.8284
186676.071
185123.0849
183829.2728
182471.7099
181134.1827
179976.4332
178660.3113
177537.6208
176384.0627
175222.5758
174292.2638
173228.0969
172327.9402
171430.3622
170500.645
169823.7681
169021.3756
168345.5298
167699.5031
167011.276
166579.5939
166041.9724
165686.1359
165361.1142
165127.8765
165065.0671
164998.0976
165014.6327
163941.8596
165025.0201
165108.4546
165218.1978
165405.6799
165516.8517
165784.4748
166087.834
166350.1782
166814.0855
167204.2292
167738.4838
168336.6455
168857.7972
169624.4722
170314.9244
171125.2429
172034.1796
172796.938
173810.814
174733.5656
175746.5918
176904.4148
177903.0885
179244.7095
180523.4175
181843.4822
183329.0067
184643.0861
186257.3376
187831.145
189401.8763
191171.8059
192774.5134
194638.737
196494.0022
198302.76
200346.2873
202228.3436
204328.0537
206454.6031
208484.2413
210788.7871
212943.0836
215267.1195
217655.7313
219895.2755
222446.2584
224854.511
227385.785
230019.8584
232454.6987
235237.5733
237885.6488
240596.8744
243429.9227
245993.4318
248927.0471
251738.1239
254560.6026
257549.0579
260312.7804
263390.5921
266395.2044
269365.4099
272514.5368
275471.0958
278658.7589
281799.422
284840.3163
288094.4816
291145.5084
294361.2622
297547.6512
300582.7116
303809.7741
306818.415
309894.5355
312913.9777
315687.9599
318543.7493
321107.2423
323522.6418
325713.8608
327393.2072
328832.6862
329584.9137
329599.5117
328655.9129
326371.6478
322834.1158
317596.6144
310443.9759
301366.8418
290821.3057
276492.2108
262866.9566
248579.8473
232313.4438
220863.7084
211102.9564
203385.8582
197843.3317
193887.662
191257.1068
189645.3927
188988.8048
188682.6992
188821.1209
189012.3452
189297.7714
189596.1548
189895.1202
190270.3266
190671.0714
191100.5771
191578.9668
191990.8273
192417.0897
192844.5861
193167.9458
193409.6594
193400.4567
193146.1897
192743.6512
191891.7831
190713.2409
189102.6067
187093.8559
184989.6623
182736.7011
180935.3936
177160.4109
176580.7144
174589.0307
170906.4359
170608.7954
168982.6634
167084.1836
166423.1986
166362.0774
166494.1984
166887.878
167999.3105
169371.5718
171890.9403
174318.8856
177673.2053
182407.6503
187286.5552
192341.2455
198295.8897
204558.2885
210542.7904
215951.7894
220439.3727
319215.9022
319920.252
319702.8483
317831.3675
314636.5027
310694.3615
305917.5366
301239.3866
297188.2318
293580.2963
290510.2554
287927.1919
285606.0542
283806.139
282474.0036
281789.2038
281944.5174
282785.0545
284571.411
286852.7313
288490.8754
289564.9514
289314.4195
289644.649
291013.4535
293690.3149
293996.6625
299328.9909
304279.9188
306579.0223
312280.3437
315655.5748
322729.3407
324063.2897
328851.3647
332487.0516
332753.5764
332970.93
332390.8051
331346.1636
329496.153
327270.5508
324786.7493
321955.6546
319232.0816
316235.1757
313201.9769
310258.4639
307144.6176
304301.1503
301376.1228
298546.1312
295966.5239
293284.4149
290893.6772
288489.7439
286179.0974
284233.6901
282238.7257
280550.325
278926.2083
277382.4531
276236.246
275028.7192
274102.3627
273271.0587
272525.4435
272165.0719
271725.4374
271503.9227
271381.2779
271340.4917
271597.4507
271803.9136
272203.6863
272702.6135
273311.2333
274148.3184
275055.4847
276495.8276
278945.3768
279859.2002
280162.5345
278747.5766
277841.4289
279081.4231
282249.6228
285193.628
285175.137
282686.9929
283161.1738
285326.2919
287525.6332
287324.0047
286722.0347
287982.9167
289137.8052
288874.6603
289172.7653
289852.2771
289890.9584
290323.8767
290674.2555
290755.5732
290991.0132
291109.0191
291125.764
291145.9124
291093.7814
291064.1751
291120.1822
291055.3425
290976.1136
291083.9112
291134.7511
291199.1042
290512.6659
289017.2997
292829.5227
292935.015
288818.0048
292096.895
293105.3104
289979.7862
291096.5609
292838.2337
292240.2902
292187.7019
293594.8298
295342.6954
297904.4909
300178.0644
298081.4162
302424.0731
302819.766
306239.0878
306645.6575
310701.2524
317526.0193
321349.539
323725.2143
330181.6559
335002.9559
340539.4459
346797.6544
352537.6667
358092.0276
363828.9276
369714.5118
374988.413
379823.7246
384502.4884
388623.6023
392337.5121
395391.2809
397847.1611
399914.6035
401230.2318
402508.2904
403195.0718
403417.9689
403488.1025
402978.7704
402254.5864
401199.952
399738.7356
398380.3058
396533.119
394632.1158
392646.533
390410.995
388441.9838
386161.2072
383904.0317
381693.7873
379255.2982
377083.6758
374666.8496
372240.1051
369933.9389
367368.1957
365042.7879
362503.8648
359909.7443
357477.1756
354752.7361
352221.8829
349537.171
346761.191
344284.6896
341551.4713
339050.5162
336507.7689
333875.031
331618.1715
329098.5119
326761.3409
324416.8597
321895.2634
319788.9239
317378.4169
315092.3902
312865.1191
310471.9189
308451.1535
306184.8199
303995.8584
301927.0615
299691.4902
297818.9764
295798.3303
293851.0364
292117.5445
290237.7919
288691.2683
287082.7368
285517.8412
284170.9624
282576.2655
281183.6047
279746.2757
278297.2349
277136.5984
275806.9334
274678.5036
273545.4031
272381.6606
271531.5788
270524.2845
269674.4069
268849.8981
267998.4602
267457.712
266769.7408
266353.3152
265944.2884
265786.0673
265725.9439
265634.5404
265613.7607
263128.852
265475.7605
265528.6386
265712.6693
265946.9015
266110.6706
266482.4131
266912.3739
267282.9039
267908.1722
268450.9802
269169.8478
269972.1661
270671.6345
271682.3606
272601.6468
273666.6585
274856.6934
275805.5145
277030.7583
278155.9079
279424.52
280888.7578
282152.6285
283857.5127
285477.2434
287138.418
288994.1993
290620.6282
292625.5075
294565.2378
296486.8799
298643.5511
300571.0848
302820.2363
305038.1804
307177.8217
309592.4395
311781.1968
314227.8969
316682.3864
318991.2037
321617.2135
324027.0112
326626.0324
329270.7439
331701.087
334482.5356
337057.2494
339750.6874
342528.1807
345026.0505
347912.5485
350595.1246
353307.7772
356112.9093
358548.3874
361389.0864
364040.4364
366647.7162
369401.2881
371836.9114
374596.191
377209.5649
379717.4194
382372.2976
384713.9615
387277.9655
389721.7129
391970.1024
394383.2835
396470.2353
398671.4593
400750.8085
402554.4027
404494.3035
406078.7931
407650.1845
409056.2143
410065.0313
411094.3956
411686.5537
412035.0488
412075.3161
411484.3396
410724.7201
409143.9445
406853.473
403602.5246
399135.8355
393855.9084
387293.1082
379418.0699
370531.2358
362103.2493
347713.7202
338482.4805
328887.2859
314448.2801
308085.1807
302054.2449
296639.2721
293059.5931
290076.8551
288287.3854
286879.3862
286522.5392
286105.5352
286311.7093
286461.1691
286749.6113
287048.8953
287276.5153
287619.0784
287993.7524
288374.6074
288842.221
289189.5329
289584.8743
290039.4776
290368.483
290666.5979
290674.3023
290493.7639
290251.8146
289578.3803
288650.9992
287305.0301
285597.2116
283836.2099
281989.0837
281377.8989
275821.2435
277607.0051
275786.517
270195.2161
271835.9236
270153.3682
267223.4649
266832.6763
267514.093
267818.2413
268122.3867
269485.5586
270656.299
274566.6639
276091.8131
279483.198
285501.9315
290356.8446
294477.0214
299817.4066
305865.653
310895.9095
314648.6643
317374.0139
466041.6371
466192.439
466358.452
464576.6249
461653.5816
458189.0695
453607.8135
449398.4779
446093.2048
443187.7678
440754.0772
438757.8169
436857.2809
435436.6814
434361.8052
433820.0367
434052.1998
434764.052
436568.5875
439156.9482
440578.3149
441421.2193
439929.764
439693.8741
441197.3454
444942.6638
442132.4676
449437.8597
454572.1647
453384.6038
458874.971
459218.1335
467911.1786
465061.5485
470686.4458
475942.5302
475027.6319
475462.5141
475547.4113
475397.4971
474437.0327
473163.1989
471609.5179
469654.2754
467829.3907
465605.5102
463305.3619
461040.047
458496.5402
456209.9675
453708.0116
451246.0999
449032.4992
446622.4842
444507.9779
442278.0898
440109.5725
438319.8495
436397.5952
434805.2727
433204.3535
431675.576
430592.273
429369.3381
428462.3368
427592.1457
426822.6704
426504.8193
426020.5257
425790.658
425614.2339
425526.1119
425795.8433
425928.4742
426285.0516
426706.8895
427237.5002
428069.7108
428966.3265
430817.8082
434757.0835
435549.5337
435245.8982
431493.2219
428775.4521
430375.1127
435898.0621
440883.5569
439904.7802
433742.6098
433999.6207
437726.444
441401.2916
440049.6587
437881.6053
439844.7125
441596.7876
440275.8689
440461.0396
441482.9633
441099.632
441646.7713
442025.3567
441984.1485
442300.8832
442432.9373
442484.3784
442535.8894
442508.3562
442493.5828
442613.0734
442529.4508
442529.0261
442543.5823
442599.6231
442669.917
441330.2758
438191.3446
445797.2223
445847.6862
437401.3308
444025.4886
445814.6949
439279.0681
441240.6921
444117.3704
442281.6359
441364.7957
442982.4241
445063.2324
448497.2733
451455.7596
444886.4109
451393.8721
448983.2973
453045.4894
449304.2813
452768.7403
462195.0441
464380.7394
462266.4643
469579.0705
472135.1265
476015.9067
481838.2208
486219.5073
490048.1872
494874.541
500391.861
504998.0853
509234.0758
513791.3958
518075.7916
522086.2524
525471.71
528458.4087
531180.4593
532869.7448
535250.639
536818.864
538176.3122
539393.4658
540046.072
540504.405
540618.4754
540272.0364
540098.6749
539281.0675
538369.8088
537311.9127
535920.961
534846.7683
533344.7856
531844.434
530371.5105
528595.4806
527130.7508
525329.8829
523496.9585
521792.0564
519749.9799
517989.4896
515940.9505
513809.9626
511860.9035
509535.7056
507404.0741
505031.9827
502495.9234
500278.4639
497703.035
495376.6627
492961.723
490416.2571
488313.8307
485868.5858
483630.8211
481362.8603
478867.7672
476868.4264
474469.3469
472196.2468
469972.1525
467535.944
465546.2138
463230.3348
460982.2162
458841.3999
456467.3238
454517.9336
452361.3031
450280.0056
448439.9281
446415.6844
444801.6322
443130.7525
441583.6149
440320.5993
438669.7618
437157.4055
435565.523
433969.5151
432709.1759
431237.0149
430004.1361
428731.1569
427447.9702
426531.0321
425411.1027
424486.2899
423546.5754
422619.8129
422056.2142
421268.7894
420855.3869
420393.1558
420558.3276
420569.666
420488.5069
420444.7476
415126.9453
420074.0959
420006.3302
420280.2307
420524.0062
420704.5926
421161.3974
421701.5959
422132.5075
422876.0084
423526.4135
424363.7668
425313.1101
426108.9314
427278.0753
428345.9457
429563.2115
430938.3152
431868.2114
433063.0928
434210.5655
435575.1735
437199.8044
438567.6613
440473.5129
442278.7684
444105.0612
446152.3987
447897.792
450099.7989
452213.6023
454275.786
456606.788
458633.7432
461043.1479
463398.1099
465625.2077
468168.7462
470411.5661
472953.9352
475482.2705
477798.336
480481.7406
482874.1682
485475.0632
488100.6333
490428.0905
493162.3729
495618.8724
498189.0016
500826.6552
503085.9287
505797.7414
508225.7984
510648.3393
513142.3995
515150.494
517631.267
519860.489
521995.3034
524281.76
526142.6032
528370.172
530381.8497
532217.3753
534203.9568
535759.1166
537551.0741
539167.8173
540502.3221
542010.6375
543076.1533
544261.9912
545274.2245
545903.1635
546694.873
547023.3784
547333.2163
547440.283
547040.8404
546731.5919
545918.8025
544881.0319
543595.2732
541683.496
539990.9119
537273.6171
534109.8547
529988.6686
524949.815
519663.9945
513498.9085
506540.5422
499290.5124
495278.0676
478996.8704
475597.5631
470803.6766
454545.8622
453134.3331
449724.5732
445284.9592
443219.8075
440542.69
439527.8254
437991.534
438041.9941
437316.711
437639.1201
437674.3027
437966.6543
438246.1568
438393.1211
438709.7639
439067.0779
439391.9809
439852.5939
440113.9431
440484.3155
440972.7045
441286.2339
441611.6089
441570.0238
441414.0675
441290.249
440720.6047
440003.1629
438878.2923
437467.51
436079.9897
434729.4981
436448.0342
427111.1492
433555.0931
431983.0372
422668.0338
428151.5209
426372.2752
421186.2279
421238.7039
423406.2586
423751.3888
423363.9743
424800.4403
424857.3141
431779.418
429928.4992
432713.5077
441508.0505
445761.0857
447435.1386
451759.7214
458436.8663
462620.7742
464351.7242
465388.2656
698858.44
699159.1419
700962.2391
699674.2582
697229.4898
694297.9192
689427.5801
685351.9034
682642.9057
680300.4227
678389.6024
676911.5321
675344.0761
674258.3737
673397.5636
672960.2525
673264.1957
673791.6696
675787.461
679227.2018
680510.0204
681198.1145
677575.7891
676548.6692
678643.205
685094.5343
676791.6617
689046.7667
695805.6098
689191.8857
695900.2161
691877.1728
704796.7617
694681.7128
702061.3459
710437.1377
706570.2069
706505.4887
706784.5185
707091.2083
706580.2184
705897.9456
704940.9035
703602.5616
702493.0713
700874.1544
699222.6114
697578.265
695597.7393
693916.8814
691880.8296
689895.5086
688137.0827
686120.708
684424.3299
682477.7878
680603.0071
679117.311
677397.2206
676043.3357
674556.1142
673163.318
672257.7499
671097.4801
670296.8663
669416.0362
668679.6439
668464.7233
667943.2909
667724.5635
667467.0117
667319.6235
667601.9522
667614.6809
667906.4983
668203.0151
668621.2662
669459.854
670378.9845
673035.7469
679957.3786
680610.4844
679242.4272
671197.519
665153.9115
667502.5089
677572.2421
686513.0352
683882.0674
670874.2209
670885.3606
677720.057
684309.7238
680881.0576
675851.9498
679316.3098
682364.2943
679114.6717
679244.4732
681053.4866
679890.294
680721.2034
681186.4626
680938.2992
681425.6853
681562.1009
681673.4002
681755.4968
681757.0463
681753.2067
681965.6935
681849.3649
681908.8333
681883.3858
681917.9444
682015.1484
679470.4601
673121.8235
688079.7163
688063.5738
671331.1756
684470.3114
687807.9094
674881.6487
678633.2296
683829.1617
679886.7238
677624.9181
679950.4984
683015.7961
688562.9274
693435.7892
679004.2074
690457.4128
683523.3282
690012.3756
679340.3011
682835.5433
698785.649
699371.7023
689835.8089
700754.0271
700273.8627
702280.5303
708821.4686
711749.7059
713010.2347
716834.9343
722177.2441
725635.5569
728519.1884
732401.9486
736444.5454
740119.6331
743008.0871
745829.1225
748526.0122
749250.6715
752296.6816
753767.4478
755785.4939
757462.3198
758760.0394
759874.4911
760689.381
761040.2925
761744.6866
761639.2271
761463.5966
761080.5279
760317.9784
759987.8343
759100.6485
758237.6403
757395.4033
756195.897
755404.1713
754167.3364
752911.4953
751807.9336
750298.81
749155.5286
747632.815
746031.9807
744663.9714
742844.1031
741263.557
739337.7618
737197.0949
735403.5298
733129.1555
731142.6516
728994.8982
726699.5825
724934.4354
722724.6485
720772.2281
718747.1049
716475.9471
714806.441
712612.9286
710563.6299
708530.6196
706262.3216
704535.8713
702377.6934
700302.2075
698297.3865
695995.2205
694184.8665
692076.3554
690071.1897
688317.4794
686350.5966
684887.2525
683355.7868
682134.9252
681345.9106
679961.4005
678507.5452
676892.1283
675312.2903
674103.5469
672623.3153
671437.0288
670120.8392
668850.8111
667996.8328
666862.1128
665982.5242
664987.6159
664080.6327
663603.1532
662771.0034
662423.7905
662388.4431
662853.0705
663028.1848
662997.6725
662967.7415
652080.1895
662174.5557
661768.9725
662138.7533
662321.8113
662443.662
662956.83
663578.235
663986.3317
664786.7559
665476.576
666335.9915
667359.2156
668130.7457
669345.2772
670461.54
671692.0993
673135.3044
673704.9602
674496.8739
675430.0474
676674.0302
678280.1753
679544.8368
681452.3356
683278.3442
685062.0017
687106.7095
688753.8456
690936.7732
693035.1777
695010.6813
697300.7373
699198.3177
701538.8241
703823.3731
705897.6377
708344.6766
710410.7812
712816.2011
715204.0887
717284.3918
719803.574
721957.5008
724334.8831
726734.4482
728726.0212
731210.0605
733351.8333
735597.6086
737916.4856
739732.5878
742098.574
744110.2856
746074.6903
748117.1128
749532.2964
751534.0216
753246.1147
754815.1657
756574.7617
757783.3266
759445.732
760852.4269
762008.7279
763370.2769
764173.2382
765274.6601
766184.2699
766721.3668
767504.3175
767741.5979
768154.2915
768394.7044
768150.1565
768174.2431
767660.98
767175.666
766523.8055
765275.4905
764286.7901
762792.0045
761154.5411
759443.7146
757213.5589
755955.5477
753005.7188
750184.8727
746094.7933
741495.2197
737156.4735
732191.4443
726745.637
721481.86
724236.3494
701406.6125
705670.4942
706545.9626
682629.5591
687695.084
686532.3322
681881.654
681481.28
678423.169
678457.1465
676357.2195
677145.1875
675805.8094
676395.0127
676220.8362
676552.9553
676795.6238
676857.3117
677162.9826
677521.4755
677784.456
678260.2663
678419.95
678783.2561
679334.1525
679618.2904
679964.1352
679802.3397
679625.7349
679591.3385
679044.3441
678488.0211
677507.7265
676351.7237
675335.2114
674542.5075
680680.5089
663568.4748
678853.6414
677479.3844
660870.2961
673571.1204
671506.2226
661670.1022
662395.8604
667440.4197
667577.8654
665377.774
666736.9683
664061.8385
677786.8582
667721.8146
669235.0877
684667.295
687617.1465
684334.3389
687549.9486
697098.3985
700790.5199
699701.9617
699013.6206
1076478.004
1077611.422
1082805.811
1082279.957
1080380.004
1077929.873
1071850.872
1067362.698
1065086.388
1063176.103
1061695.058
1060700.396
1059379.269
1058599.815
1057916.259
1057552.442
1057957.392
1058246.029
1060779.172
1066068.958
1067325.947
1067945.33
1060492.537
1058165.056
1061549.127
1073549.216
1055075.166
1077470.934
1088191.527
1072109.548
1082323.483
1071140.66
1092983.848
1070065.261
1081171.084
1096038.677
1086357.416
1085098.831
1085329.302
1085867.407
1085506.015
1085172.129
1084531.423
1083578.445
1083010.334
1081776.571
1080637.06
1079468.562
1077943.716
1076823.265
1075160.186
1073644.72
1072339.368
1070701.324
1069472.164
1067791.8
1066265.69
1065143.521
1063658.256
1062620.093
1061246.749
1060052.094
1059399.663
1058325.322
1057697.096
1056789.58
1056127.785
1056089.304
1055526.586
1055355.215