/*--------------------------------*- C++ -*----------------------------------*\
| =========                 |                                                 |
| \\      /  F ield         | OpenFOAM: The Open Source CFD Toolbox           |
|  \\    /   O peration     | Version:  2212                                  |
|   \\  /    A nd           | Website:  www.openfoam.com                      |
|    \\/     M anipulation  |                                                 |
\*---------------------------------------------------------------------------*/
FoamFile
{
    version     2.0;
    format      ascii;
    arch        "LSB;label=32;scalar=64";
    class       volScalarField;
    location    "1000";
    object      p;
}
// * * * * * * * * * * * * * * * * * * * * * * * * * * * * * * * * * * * * * //

dimensions      [0 2 -2 0 0 0 0];

internalField   nonuniform List<scalar> 
162063
(
-38.29831498
-38.02012915
-37.58443428
-37.03993438
-36.43582834
-35.824092
-35.24034259
-34.71601156
-34.2672627
-33.89831276
-33.60842613
-33.38983437
-33.23702414
-33.1465777
-33.11786997
-33.15075889
-33.24335912
-33.38818551
-33.57012557
-33.77073575
-33.97273412
-34.17328805
-34.37933685
-34.60287121
-34.86317385
-35.16851667
-35.53694102
-35.98127148
-36.50904078
-37.14869923
-37.89244222
-38.75349861
-39.72965917
-40.78462972
-41.93510215
-43.1279011
-44.35652635
-45.60975954
-46.83873108
-48.07135421
-49.26667882
-50.42718227
-51.56327707
-52.639494
-53.69310719
-54.70068502
-55.66472592
-56.60716814
-57.49962007
-58.37713935
-59.22976154
-60.05688754
-60.88598155
-61.69334731
-62.50767347
-63.32420623
-64.13796075
-64.97595273
-65.81571472
-66.6780311
-67.56106142
-68.45407645
-69.3810189
-70.32026458
-71.28551598
-72.27705978
-73.27962616
-74.31263442
-75.35553824
-76.41478902
-77.4903993
-78.56683984
-79.65631809
-80.74276253
-81.8258667
-82.90395643
-83.96084881
-85.00030485
-86.00813003
-86.97901918
-87.91194093
-88.79614576
-89.63553441
-90.42503803
-91.1634339
-91.85568855
-92.49926621
-93.0985191
-93.65222203
-94.16027175
-94.62608827
-95.04750116
-95.42743617
-95.76708577
-96.06659628
-96.32917861
-96.55555524
-96.74981833
-96.91402169
-97.05182907
-97.16739827
-97.26394727
-97.34509782
-97.41546135
-97.47799915
-97.53576207
-97.59093963
-97.64542871
-97.70027105
-97.75556167
-97.81130631
-97.86678954
-97.92115044
-97.974307
-98.02517925
-98.07432152
-98.12219193
-98.17034733
-98.22056881
-98.27424515
-98.33328401
-98.39915047
-98.47286274
-98.55593614
-98.64822275
-98.75053131
-98.86278363
-98.98395328
-99.11540753
-99.25504734
-99.40370445
-99.5615669
-99.72576044
-99.90109285
-100.0831139
-100.2740578
-100.4753046
-100.6797808
-100.8964602
-101.1148417
-101.3348451
-101.5583204
-101.7663756
-101.9726958
-102.15759
-102.3161244
-102.4564984
-102.5465194
-102.6094932
-102.6223575
-102.5742167
-102.4881779
-102.3196642
-102.1016639
-101.815317
-101.4407708
-101.020605
-100.4994996
-99.91596255
-99.25986646
-98.49647947
-97.68837209
-96.77084289
-95.78215294
-94.72440213
-93.54563359
-92.3250089
-90.99301692
-89.58379553
-88.11206454
-86.5294941
-84.90847733
-83.197936
-81.41899138
-79.59420045
-77.67790275
-75.72923895
-73.71276232
-71.6359508
-69.52676202
-67.34330538
-65.1325102
-62.871574
-60.55670584
-58.219683
-55.82235494
-53.40094536
-50.94381853
-48.43953751
-45.92473468
-43.36811539
-40.79999943
-38.22027334
-35.61457843
-33.01870416
-30.40200203
-27.791309
-25.19616848
-22.58314983
-19.99359163
-17.39997206
-14.820147
-12.26127711
-9.706775061
-7.185118012
-4.679463617
-2.199075719
0.2460701573
2.670402183
5.049518326
7.392696741
9.695415608
11.94565767
14.15506804
16.30693707
18.40596058
20.45179293
22.43259337
24.35757691
26.21510246
28.00610086
29.7324186
31.38337702
32.9655225
34.47128461
35.89950765
37.25292774
38.52301424
39.71342325
40.81980228
41.83996024
42.77595528
43.62205068
44.37989054
45.04714957
45.62212981
46.10466139
46.49107992
46.78106977
46.9773767
47.08548551
47.10889514
47.05013739
46.90968669
46.6876862
46.38610878
46.00259658
45.53991531
44.9977878
44.37446696
43.67506228
42.89512153
42.03875356
41.10750682
40.0972152
39.01754497
37.86226012
36.63593468
35.34328754
33.97607877
32.54939201
31.05510978
29.49718549
27.88547792
26.20590258
24.47983986
22.69708774
20.86009768
18.98368555
17.05030251
15.08332859
13.07473472
11.02318836
8.948737778
6.830773314
4.6932886
2.531938953
0.3401100973
-1.855804948
-4.078926019
-6.306586488
-8.537900759
-10.78666263
-13.0185265
-15.25905383
-17.488441
-19.69822593
-21.9114468
-24.0856582
-26.24848023
-28.38402618
-30.47470956
-32.55320436
-34.56778943
-36.54814808
-38.48627384
-40.35024894
-42.19598388
-43.9453675
-45.64494469
-47.28416496
-48.81997636
-50.30476222
-51.68177926
-52.97462516
-54.18648521
-55.26920075
-56.27697946
-57.14995095
-57.90558897
-58.55965275
-59.05322137
-59.44252636
-59.67476708
-59.75380592
-59.70935358
-59.46893672
-59.09422234
-58.53987419
-57.79659465
-56.91374307
-55.80670095
-54.54512025
-53.09809759
-51.44607311
-49.66733754
-47.67668924
-45.56569855
-43.33560696
-40.97410956
-38.60796098
-36.17322525
-33.79670226
-31.52604542
-29.37034211
-27.46929595
-25.77997971
-24.37550811
-23.26060824
-22.36300616
-21.70680948
-21.1968692
-20.81407776
-20.54360213
-20.33083248
-20.19234009
-20.09203953
-20.02133069
-19.98167259
-19.94906406
-19.93313807
-19.92313009
-19.91641087
-19.91834467
-19.92050473
-19.92687045
-19.9347605
-19.94234996
-19.94985478
-19.95531829
-19.95690346
-19.95307029
-19.94150581
-19.91876545
-19.88561101
-19.83941736
-19.78136556
-19.71481763
-19.64218614
-19.57394569
-19.51869125
-19.48971052
-19.50223541
-19.56680194
-19.69832816
-19.90920769
-20.21280837
-20.62504001
-21.15928631
-21.82697722
-22.63308372
-23.57739819
-24.65461333
-25.85309426
-27.15413346
-28.53307571
-29.95895046
-31.39309564
-32.79566067
-34.12145476
-35.3252716
-36.36871921
-37.21396223
-37.83857014
-38.22639015
-38.37506132
-38.28901292
-38.01214052
-37.57947391
-37.03927139
-36.44000234
-35.83352534
-35.25410045
-34.73300963
-34.28577824
-33.91658591
-33.62503002
-33.40362188
-33.24748089
-33.1535138
-33.12130333
-33.15121836
-33.24124975
-33.38430528
-33.56564406
-33.76699421
-33.97167391
-34.17572504
-34.38541188
-34.61254669
-34.87538179
-35.18360186
-35.55405089
-35.99958057
-36.52862205
-37.16687769
-37.9097371
-38.76927005
-39.74396246
-40.80096669
-41.95387921
-43.15235617
-44.38861649
-45.65057348
-46.88960788
-48.13225097
-49.33740533
-50.50671989
-51.65095151
-52.73306694
-53.79150674
-54.8019783
-55.76675308
-56.70975566
-57.5994887
-58.47424797
-59.32278266
-60.14330377
-60.96736263
-61.76631276
-62.57259387
-63.38150333
-64.18478792
-65.01528557
-65.84528883
-66.69818804
-67.5735634
-68.45605258
-69.37589385
-70.30669651
-71.2638762
-72.24993277
-73.24449182
-74.2728908
-75.310439
-76.3645682
-77.43778212
-78.50995816
-79.59810215
-80.68286743
-81.76450485
-82.84305328
-83.89957935
-84.94065094
-85.95019318
-86.92347057
-87.859853
-88.74739206
-89.59051937
-90.38413967
-91.12643819
-91.82284051
-92.47022947
-93.0733538
-93.63084216
-94.14241786
-94.61176221
-95.03653267
-95.41948116
-95.76201529
-96.06401085
-96.32898795
-96.55749916
-96.75342429
-96.91877231
-97.05746889
-97.17306198
-97.2694517
-97.35048225
-97.42041083
-97.48249449
-97.53960588
-97.59416854
-97.64801189
-97.70225487
-97.75704413
-97.81236504
-97.8674327
-97.92157053
-97.97470503
-98.02565768
-98.07494202
-98.12301702
-98.17153733
-98.22212929
-98.2762359
-98.33568031
-98.40194474
-98.47608023
-98.55951254
-98.65221199
-98.75491448
-98.86764268
-98.98939074
-99.12145808
-99.26189359
-99.41157233
-99.57055553
-99.73654887
-99.9135356
-100.0981461
-100.2919359
-100.4966027
-100.7059163
-100.9273372
-101.1523516
-101.3796728
-101.6114598
-101.8301755
-102.0473411
-102.2450751
-102.4183669
-102.5737997
-102.681892
-102.7630393
-102.7953471
-102.7689238
-102.7037979
-102.5585929
-102.3634958
-102.1000783
-101.7500921
-101.3526039
-100.8553345
-100.2945153
-99.66023008
-98.91896244
-98.13092593
-97.23301513
-96.26236556
-95.22164624
-94.05767114
-92.85142666
-91.53107401
-90.13149774
-88.66910498
-87.09150019
-85.47674594
-83.77008869
-81.99251639
-80.17153449
-78.25318636
-76.30529072
-74.28772789
-72.2066295
-70.0971167
-67.90744127
-65.69298921
-63.42792398
-61.10456997
-58.76391685
-56.35705811
-53.9279354
-51.46360832
-48.946193
-46.42289751
-43.85267714
-41.27196191
-38.68206109
-36.05997859
-33.45370649
-30.82338545
-28.1991438
-25.59177321
-22.96187681
-20.36032615
-17.75227096
-15.15755104
-12.58710203
-10.01597331
-7.48173948
-4.961794667
-2.465842713
-0.008074770115
2.43309731
4.826183943
7.183725725
9.502191375
11.76521954
13.9898879
16.15515742
18.26710907
20.32716164
22.31968905
24.25786738
26.12743807
27.92952936
29.66789835
31.32885796
32.9215866
34.43711858
35.87408966
37.23672053
38.51453019
39.71254316
40.82593362
41.85205837
42.79402325
43.64488913
44.40713456
45.07801957
45.655792
46.14037856
46.52812606
46.81872302
47.01505915
47.12269667
47.14489295
47.08435342
46.94145369
46.71624789
46.41114699
46.02296779
45.55533589
45.00763849
44.37766971
43.67178543
42.88389258
42.01943219
41.07975006
40.05937889
38.97048028
37.80417122
36.56663921
35.26305852
33.88243827
32.44409513
30.93611815
29.36410566
27.73954
26.0435541
24.30405443
22.5055743
20.65218643
18.76148797
16.80976381
14.82791152
12.80251847
10.73291953
8.643497146
6.506100353
4.352798297
2.174437017
-0.03648864581
-2.247158292
-4.489758318
-6.733542097
-8.980835789
-11.24903954
-13.49447868
-15.75345586
-17.99848793
-20.22203671
-22.45417564
-24.6397225
-26.8188777
-28.96857191
-31.06983735
-33.16551428
-35.18772949
-37.18093786
-39.13043468
-41.00092126
-42.85853762
-44.61194671
-46.31827972
-47.9651993
-49.50316204
-50.99845694
-52.37569902
-53.67089786
-54.88685569
-55.96672616
-56.97466091
-57.84328437
-58.59419176
-59.24586496
-59.72772847
-60.11079192
-60.33024578
-60.39405935
-60.33729901
-60.07490972
-59.68197545
-59.10376691
-58.33251262
-57.42318386
-56.28142436
-54.98566251
-53.50136525
-51.80658729
-49.98695735
-47.94961344
-45.79405069
-43.51902145
-41.11288989
-38.70704579
-36.23630201
-33.83182242
-31.53929508
-29.37214825
-27.46479444
-25.77918602
-24.38124366
-23.27212006
-22.38242531
-21.72625645
-21.21852282
-20.83552252
-20.56183905
-20.34877697
-20.20696129
-20.10483182
-20.03326836
-19.99113062
-19.95857817
-19.94127172
-19.93077708
-19.92410863
-19.92541852
-19.92751265
-19.93399382
-19.9411921
-19.94918267
-19.95597126
-19.96161361
-19.96248307
-19.95822365
-19.94556085
-19.92183975
-19.88725151
-19.83929129
-19.77929759
-19.71026525
-19.6350093
-19.56369986
-19.50515638
-19.47242339
-19.48094721
-19.54103508
-19.66834849
-19.8748443
-20.17456938
-20.58366367
-21.11583576
-21.78217554
-22.58781719
-23.53274269
-24.61090776
-25.81144169
-27.11511836
-28.49729678
-29.9272725
-31.36515503
-32.77194251
-34.10164294
-35.3085226
-36.35526976
-37.20192303
-37.82763317
-38.21595582
-38.36436131
-38.28811635
-38.01197736
-37.58118624
-37.04362998
-36.44717093
-35.84347251
-35.26610343
-34.74616081
-34.29888254
-33.92853898
-33.63494426
-33.41093984
-33.25209733
-33.15552548
-33.12097117
-33.14906798
-33.23768407
-33.37991599
-33.56122495
-33.7633769
-33.97007786
-34.17658394
-34.38893392
-34.61858945
-34.88346616
-35.19394461
-35.56643135
-36.01365222
-36.54444987
-37.18273991
-37.9256587
-38.78460516
-39.7581238
-40.81625261
-41.96974866
-43.17100974
-44.41115573
-45.67755302
-46.92288061
-48.17151925
-49.38313026
-50.55850606
-51.70840614
-52.79518858
-53.85747086
-54.87079266
-55.8368974
-56.78118151
-57.67005274
-58.54354605
-59.39037784
-60.20737468
-61.02877468
-61.82287741
-62.62402599
-63.42828131
-64.22508047
-65.05090359
-65.8747044
-66.72132984
-67.59161416
-68.46717961
-69.38238352
-70.30780002
-71.25957549
-72.24202427
-73.23136005
-74.25656904
-75.29068117
-76.34144847
-77.41305567
-78.4826766
-79.56963653
-80.65345938
-81.73404815
-82.81292979
-83.86935709
-84.91123895
-85.92216151
-86.89674609
-87.83542734
-88.72504748
-89.570517
-90.36670626
-91.11127707
-91.81019583
-92.45983114
-93.06509697
-93.62470773
-94.13817714
-94.60941647
-95.03592734
-95.42036806
-95.764187
-96.06732495
-96.33316224
-96.56245405
-96.75894016
-96.92445618
-97.06310991
-97.17824263
-97.27431261
-97.35499531
-97.4245563
-97.48624469
-97.54296107
-97.59708695
-97.65058285
-97.70434808
-97.75885951
-97.81382857
-97.86872733
-97.92227205
-97.97570816
-98.02671254
-98.07606247
-98.12428961
-98.17299656
-98.22375191
-98.27807033
-98.33770429
-98.40415554
-98.47851263
-98.56212346
-98.65506577
-98.75801825
-98.87102603
-98.99319525
-99.12568939
-99.26674534
-99.41714596
-99.57695602
-99.74413064
-99.92233598
-100.1085351
-100.3042651
-100.5110569
-100.7233372
-100.9477492
-101.1765293
-101.4083219
-101.6448429
-101.8698056
-102.093221
-102.2983299
-102.4802102
-102.6444025
-102.763258
-102.8550752
-102.8991559
-102.8859888
-102.8338029
-102.7034649
-102.5229388
-102.2746348
-101.9409825
-101.5589325
-101.0782089
-100.5332741
-99.9147299
-99.18967668
-98.41671916
-97.53381286
-96.57711784
-95.54983676
-94.39829429
-93.20383549
-91.89378718
-90.50281492
-89.04882752
-87.47681922
-85.86822632
-84.16612331
-82.39137603
-80.57464815
-78.65690969
-76.71105281
-74.6944586
-72.61186641
-70.50360317
-68.31105367
-66.09517904
-63.82853367
-61.50020847
-59.15812525
-56.74564402
-54.31175041
-51.84334384
-49.316993
-46.78831716
-44.20884336
-41.61925887
-39.0225613
-36.38871452
-33.77523106
-31.13540691
-28.50125354
-25.88548144
-23.24308889
-20.63332813
-18.01515084
-15.40956412
-12.83122017
-10.24801258
-7.704875868
-5.1748805
-2.667513401
-0.2010060109
2.252570328
4.655741356
7.023490137
9.353532002
11.62562175
13.86147172
16.03654209
18.15777639
20.22835631
22.22928096
24.17707937
26.05546476
27.86552818
29.61284679
31.28105492
32.88158494
34.40442015
35.84777229
37.21729008
38.50072482
39.70446862
40.82315329
41.85379622
42.80028046
43.65478026
44.42038061
45.09401535
45.67389999
46.16047946
46.54900216
46.84021495
47.03655958
47.14379438
47.16499215
47.1030072
46.95819844
46.73043207
46.42253639
46.03077139
45.55934948
45.00739713
44.3723231
43.66154262
42.86756992
41.99703873
41.05099985
40.0229625
38.92727438
37.75256951
36.5067309
35.19505554
33.80433568
32.35766331
30.83937345
29.25703552
27.62316091
25.91486516
24.16596267
22.35576692
20.49045642
18.58958696
16.62420222
14.63204988
12.59436287
10.51167722
8.411850811
6.260085497
4.09590883
1.905311801
-0.3194711303
-2.540190382
-4.797138287
-7.051948987
-9.310595474
-11.59282157
-13.84724769
-16.11977685
-18.37539894
-20.60857643
-22.8542562
-25.04702937
-27.23800645
-29.3972736
-31.50565577
-33.6135276
-35.64022729
-37.64251185
-39.59960955
-41.47367979
-43.3402053
-45.09569181
-46.80699719
-48.45840124
-49.99658043
-51.49827017
-52.87384408
-54.16980398
-55.38665003
-56.46161732
-57.47009173
-58.33304565
-59.07893529
-59.72643089
-60.19784961
-60.57436733
-60.78210868
-60.83318514
-60.76469622
-60.4845584
-60.07624785
-59.47874112
-58.68609899
-57.75571354
-56.58795966
-55.2668992
-53.75505259
-52.03081669
-50.18139919
-48.11311713
-45.92768513
-43.62343493
-41.19060177
-38.75943363
-36.26948125
-33.84986658
-31.54660124
-29.37664238
-27.46719858
-25.78695186
-24.39422843
-23.28822526
-22.4028678
-21.74551757
-21.23738364
-20.85310595
-20.57600916
-20.36171911
-20.21722704
-20.11326314
-20.04091865
-19.99720691
-19.96444205
-19.94649025
-19.93544718
-19.92887844
-19.9297428
-19.93179449
-19.93818089
-19.94517652
-19.95326884
-19.95994145
-19.9654941
-19.96620659
-19.96149323
-19.94843649
-19.92404453
-19.88872965
-19.83969844
-19.77839134
-19.70794277
-19.63097536
-19.55786103
-19.49726094
-19.46226078
-19.46828593
-19.52575535
-19.65036249
-19.85435169
-20.15187917
-20.55944586
-21.090845
-21.75695945
-22.56287011
-23.50878808
-24.58813221
-25.79070064
-27.09675535
-28.48147828
-29.91471609
-31.35528504
-32.76501975
-34.09713201
-35.30572131
-36.35421675
-37.20122419
-37.82722108
-38.21527957
-38.36302014
-38.29117596
-38.01558668
-37.58603763
-37.05006074
-36.4551643
-35.85278368
-35.27615981
-34.75625486
-34.30816544
-33.93634461
-33.64075029
-33.41456291
-33.2536411
-33.15521593
-33.11915333
-33.14618594
-33.2341082
-33.3760642
-33.55759342
-33.7604906
-33.96865584
-34.17688969
-34.3911153
-34.62256275
-34.88899857
-35.20126287
-35.5755154
-36.02448722
-36.55703947
-37.19602478
-37.93942981
-38.79823617
-39.77093189
-40.82946224
-41.98268052
-43.18496523
-44.42681389
-45.69511923
-46.94391364
-48.19573306
-49.41109578
-50.59016861
-51.74350874
-52.83354389
-53.8984226
-54.91391425
-55.88130721
-56.82678529
-57.71572503
-58.58877573
-59.43500382
-60.25027805
-61.07043408
-61.86202618
-62.66023241
-63.46189004
-64.25487926
-65.07799767
-65.89820299
-66.74093868
-67.60820644
-68.47953316
-69.39183816
-70.31398151
-71.26229635
-72.2425336
-73.22866946
-74.25183259
-75.28382036
-76.33242847
-77.4030214
-78.47109164
-79.55723521
-80.64048434
-81.7204221
-82.79946879
-83.85589193
-84.89820353
-85.90994331
-86.88537121
-87.82537412
-88.71632504
-89.56315674
-90.36085496
-91.10678715
-91.80704414
-92.45792261
-93.06428309
-93.62494546
-94.13934945
-94.61136976
-95.03867559
-95.42371431
-95.76796163
-96.07151065
-96.33748565
-96.56690716
-96.76344297
-96.92877291
-97.06717932
-97.18193039
-97.27777971
-97.35822341
-97.427496
-97.48893208
-97.54534583
-97.59920107
-97.65244996
-97.70592784
-97.76024245
-97.81499858
-97.86978484
-97.92346832
-97.97656862
-98.02763448
-98.07704245
-98.12537547
-98.17421116
-98.2250751
-98.27951813
-98.33925464
-98.40579989
-98.48025643
-98.56396653
-98.65705892
-98.76018914
-98.87341275
-98.99589785
-99.12873161
-99.27025098
-99.4211944
-99.58161861
-99.74962712
-99.92869062
-100.1159613
-100.3129654
-100.5211237
-100.7352611
-100.9615189
-101.1925593
-101.4270009
-101.6662752
-101.8948754
-102.121871
-102.3311791
-102.5179751
-102.6871427
-102.8122448
-102.9102079
-102.9611404
-102.9558173
-102.9112744
-102.7899556
-102.6182532
-102.3792482
-102.0558651
-101.6835205
-101.2135092
-100.6788281
-100.0706738
-99.35655568
-98.59378936
-97.72136229
-96.77436611
-95.7566473
-94.61429355
-93.42839613
-92.12622438
-90.74185938
-89.29430616
-87.72720138
-86.12350597
-84.42546578
-82.65359415
-80.84056109
-78.92440446
-76.98070219
-74.96573607
-72.8830843
-70.77646345
-68.58304876
-66.36696032
-64.10017452
-61.76930246
-59.42699232
-57.01161113
-54.57507833
-52.10467244
-49.57282763
-47.04090864
-44.45569024
-41.86028813
-39.25936604
-36.61773955
-33.99950863
-31.35348953
-28.71252656
-26.09142008
-23.4404103
-20.82512805
-18.20020314
-15.58712896
-13.00354402
-10.41208017
-7.86284663
-5.326070498
-2.810750255
-0.3383182956
2.123933985
4.534181283
6.908959848
9.247139481
11.52550023
13.76913899
15.95109762
18.0787693
20.1567653
22.16355792
24.11808275
26.00269023
27.81830471
29.57191313
31.24520191
32.85117471
34.37914592
35.82695518
37.20130317
38.48868919
39.69642203
40.81880829
41.85260194
42.80224562
43.6592858
44.42723311
45.10281058
45.68419898
46.17184338
46.56120051
46.8528716
47.04925622
47.15621059
47.17670971
47.11370255
46.96752301
46.73795181
46.42808972
46.03378658
45.55970524
45.00473374
44.36605944
43.65184661
42.85354665
41.97876314
41.02822698
39.99476004
38.8943259
37.71362378
36.46198548
35.14461982
33.74673348
32.29429946
30.76863677
29.17909582
27.53872452
25.82167815
24.06636033
22.24778777
20.37417212
18.46625022
16.49117021
14.49204052
12.44559378
10.35377896
8.246804092
6.084842334
3.913318562
1.714071356
-0.5203352741
-2.747840086
-5.014897257
-7.277079917
-9.543633941
-11.83550236
-14.09581863
-16.37777784
-18.64034081
-20.88004234
-23.13485758
-25.33209339
-27.53112769
-29.6964506
-31.80939283
-33.92519769
-35.95422475
-37.9624452
-39.9239584
-41.79978292
-43.67195887
-45.42777829
-47.14204789
-48.79530464
-50.33263499
-51.83748338
-53.21068794
-54.50632722
-55.72226147
-56.79291429
-57.80054966
-58.65824591
-59.39968805
-60.04273816
-60.50594767
-60.87662787
-61.07508137
-61.11653739
-61.03851922
-60.74554746
-60.32569807
-59.71420541
-58.90670499
-57.96102664
-56.7757581
-55.4374404
-53.90718195
-52.16407119
-50.29492771
-48.20772107
-46.00390781
-43.68213903
-41.23442586
-38.78864801
-36.28946391
-33.8627681
-31.55508759
-29.3859467
-27.47666803
-25.80105185
-24.41174301
-23.30704352
-22.42317293
-21.76372934
-21.25345033
-20.86695399
-20.58659557
-20.37054268
-20.22395594
-20.11837242
-20.04534537
-20.00068293
-19.96763577
-19.94933931
-19.93791286
-19.93132136
-19.93200072
-19.93400154
-19.94041112
-19.94733221
-19.95549701
-19.96217961
-19.96774636
-19.96843383
-19.96351731
-19.95025445
-19.92551751
-19.88976826
-19.84007254
-19.77794829
-19.70663557
-19.62860256
-19.55431551
-19.49241295
-19.45601638
-19.46047435
-19.51632406
-19.63930685
-19.84181074
-20.13815415
-20.54506719
-21.07631131
-21.74261224
-22.54903644
-23.49595435
-24.57640367
-25.78066594
-27.08857772
-28.47524202
-29.91083041
-31.35324154
-32.76497139
-34.09856455
-35.30814351
-36.35763135
-37.20464228
-37.83068195
-38.21843193
-38.36570839
-38.2957672
-38.02069052
-37.59200608
-37.05694764
-36.46285903
-35.86095217
-35.28436091
-34.76394052
-34.31474665
-33.94144305
-33.64409015
-33.4161648
-33.25368444
-33.15395529
-33.11692305
-33.1433321
-33.23094653
-33.37289029
-33.55471715
-33.75824895
-33.96744382
-34.17686172
-34.39234925
-34.62501664
-34.89259661
-35.20623251
-35.58193657
-36.03251267
-36.56668424
-37.20672455
-37.95090608
-38.80994071
-39.78224495
-40.84089469
-41.99362317
-43.19607842
-44.43847067
-45.70731595
-46.95776446
-48.21099278
-49.4282376
-50.6092975
-51.76442149
-52.8564128
-53.92276728
-54.93960546
-55.90792355
-56.85417246
-57.74340712
-58.61628839
-59.46231343
-60.27676223
-61.09628712
-61.88665321
-62.68320393
-63.48341214
-64.27426868
-65.0958022
-65.9140048
-66.75438874
-67.61988461
-68.48878341
-69.39926555
-70.31946517
-71.26564746
-72.24451896
-73.22880394
-74.25063683
-75.28135713
-76.32863154
-77.39853927
-78.46573822
-79.55132399
-80.634228
-81.71379598
-82.79286595
-83.84934269
-84.89187972
-85.90408318
-86.88006021
-87.82078871
-88.71258394
-89.5601839
-90.35872091
-91.10546813
-91.80638303
-92.45792294
-93.06479283
-93.62590569
-94.14076275
-94.6130238
-95.04063088
-95.42586224
-95.77017487
-96.07384857
-96.33974856
-96.56912052
-96.76560348
-96.93076688
-97.0690327
-97.18358599
-97.27934291
-97.35969385
-97.42881943
-97.49015196
-97.54640567
-97.60014172
-97.653256
-97.7066053
-97.76081452
-97.81547004
-97.87019451
-97.92390584
-97.97687432
-98.02807629
-98.07755772
-98.1259982
-98.17495559
-98.22592474
-98.28046586
-98.34027933
-98.40689729
-98.48142912
-98.56523085
-98.65844315
-98.76171894
-98.87512103
-98.99785186
-99.13096176
-99.27283118
-99.4241862
-99.58506987
-99.75367517
-99.9333463
-100.1213526
-100.3192035
-100.5282569
-100.743574
-100.9709887
-101.2034152
-101.4394499
-101.6803527
-101.9110978
-102.1401721
-102.3518927
-102.541517
-102.713516
-102.8422351
-102.9437288
-102.9986112
-102.9978652
-102.9577594
-102.8417852
-102.6752932
-102.441823
-102.12466
-101.7581732
-101.2947699
-100.7663949
-100.1647205
-99.45754599
-98.7012415
-97.83562491
-96.89489492
-95.88349256
-94.74733274
-93.56715715
-92.27042524
-90.890613
-89.44751056
-87.88404757
-86.28381199
-84.58882818
-82.81924258
-81.00895267
-79.09438725
-77.15243081
-75.13897534
-73.05676902
-70.95156285
-68.75815887
-66.54228825
-64.27587518
-61.94383856
-59.60172263
-57.18498808
-54.74707028
-52.27576361
-49.74073166
-47.20687414
-44.61825096
-42.01920875
-39.41573983
-36.7692769
-34.14803065
-31.49818551
-28.852813
-26.22843426
-23.57195504
-20.95308792
-18.32388299
-15.70594735
-13.1189844
-10.52222248
-7.968981792
-5.427832654
-2.907289876
-0.4309648883
2.037029069
4.45203943
6.831478274
9.175076992
11.45765748
13.70646646
15.89307081
18.02506445
20.10803016
22.11880929
24.07784347
25.96666587
27.78604781
29.54388418
31.22064313
32.83028592
34.36173772
35.81258858
37.19019333
38.48028404
39.69071765
40.81561516
41.85155943
42.80334452
43.66212403
44.431677
45.10860683
45.69109444
46.17940674
46.56935861
46.86137937
47.05784968
47.16465882
47.18473485
47.12106887
46.97398419
46.74322736
46.43204728
46.03604966
45.56018053
45.00315185
44.36204712
43.64548805
42.84423691
41.96656021
41.01292251
39.97575768
38.872064
37.6872369
36.43165999
35.11037509
33.70760695
32.25123425
30.72048808
29.12608181
27.48125645
25.75826435
23.99861014
22.17426644
20.29509098
18.38236881
16.40073679
14.3969577
12.3445079
10.24661758
8.134828058
5.966029363
3.789684883
1.584573913
-0.6561386452
-2.888107802
-5.161863106
-7.428780179
-9.700596286
-11.99865478
-14.26271227
-16.55081394
-18.81769199
-21.06160933
-23.32212023
-25.52201742
-27.72616971
-29.89505679
-32.01079089
-34.13131202
-36.16145908
-38.1732706
-40.13707558
-42.0136669
-43.88895106
-45.64438815
-47.36026458
-49.0139333
-50.55023423
-52.05637636
-53.42745164
-54.72241029
-55.93687511
-57.00426787
-58.01058173
-58.8642364
-59.60226696
-60.24152088
-60.69895777
-61.06508342
-61.25692491
-61.29173547
-61.20674231
-60.90524922
-60.47741658
-59.85655904
-59.03941812
-58.0834098
-56.88715073
-55.53778003
-53.99600648
-52.24151955
-50.36012279
-48.26208056
-46.04761556
-43.71601982
-41.26065035
-38.80711511
-36.30418189
-33.87477468
-31.56591669
-29.39873365
-27.49043118
-25.81800233
-24.43043467
-23.32565611
-22.44116672
-21.77907275
-21.26587061
-20.87688628
-20.59373852
-20.3759311
-20.22779607
-20.12097919
-20.04743795
-20.0022533
-19.96899733
-19.95052934
-19.93889727
-19.93226354
-19.93289477
-19.93489772
-19.94139527
-19.94830457
-19.95653365
-19.96327854
-19.96893676
-19.96964888
-19.96467199
-19.95131231
-19.92639206
-19.89036182
-19.84025992
-19.77763356
-19.70576287
-19.62702846
-19.5519539
-19.48919566
-19.45188965
-19.45533567
-19.51013754
-19.63212589
-19.8337353
-20.12942943
-20.53607797
-21.06737299
-21.73392318
-22.5408163
-23.48852554
-24.56983449
-25.77535657
-27.08461371
-28.47270057
-29.90992967
-31.35362223
-32.76674701
-34.10134058
-35.31162827
-36.36181014
-37.2088771
-37.8350479
-38.22270525
-38.36987343
-38.30075165
-38.02617717
-37.59810794
-37.0635578
-36.46982198
-35.86791755
-35.29099164
-34.76981773
-34.31947915
-33.94483626
-33.64602819
-33.41675755
-33.25311843
-33.15246297
-33.11479384
-33.14082584
-33.22832015
-33.3703578
-33.55248381
-33.75653191
-33.96643939
-34.17664633
-34.39295546
-34.62640755
-34.89479512
-35.20943451
-35.58628786
-36.03822154
-36.57381033
-37.21504338
-37.9601796
-38.81973621
-39.79206158
-40.85082963
-42.0031928
-43.20552347
-44.44794497
-45.71670484
-46.96776922
-48.22141272
-49.43938736
-50.6213274
-51.77714998
-52.87011269
-53.93711333
-54.9545885
-55.92339992
-56.86995764
-57.75938795
-58.63210052
-59.47794849
-60.29195059
-61.1110352
-61.90076414
-62.6963349
-63.49565611
-64.28532615
-65.10584216
-65.92291649
-66.76190579
-67.62630493
-68.49385407
-69.40316288
-70.32222512
-71.26713872
-72.24512277
-73.22840097
-74.24936089
-75.27934716
-76.32585573
-77.39526785
-78.46202201
-79.54724242
-80.62996353
-81.70936126
-82.78837177
-83.84495216
-84.88761595
-85.90010373
-86.87645125
-87.81756118
-88.70989322
-89.55792599
-90.35691353
-91.10415399
-91.80536454
-92.4572415
-93.06432946
-93.62559383
-94.1406677
-94.61297164
-95.04066904
-95.42594825
-95.77022402
-96.07394005
-96.33976983
-96.56910539
-96.765581
-96.93068975
-97.06894842
-97.18346642
-97.2792394
-97.35961519
-97.4287395
-97.49008958
-97.54633495
-97.60007828
-97.65318125
-97.70652762
-97.76073499
-97.81538931
-97.8701326
-97.92387312
-97.97675835
-98.02821328
-98.07777007
-98.12631933
-98.17539031
-98.2264536
-98.28107575
-98.34095876
-98.40764419
-98.48224538
-98.56612557
-98.65943244
-98.76282373
-98.87636503
-98.99927873
-99.13260426
-99.27473911
-99.42640457
-99.58763199
-99.75666688
-99.93677751
-100.1252973
-100.3237248
-100.533381
-100.7494647
-100.9776316
-101.2109338
-101.4479601
-101.6898617
-101.9219047
-102.1522243
-102.3653658
-102.5566514
-102.7302946
-102.86113
-102.9646756
-103.0218463
-103.0237692
-102.986229
-102.8733892
-102.7099368
-102.4796958
-102.166209
-101.8031597
-101.3436982
-100.8190711
-100.2212607
-99.51830614
-98.76589718
-97.90447483
-96.96757967
-95.96009459
-94.82784948
-93.65124412
-92.35799529
-90.98107438
-89.54080182
-87.97976485
-86.38175447
-84.68882228
-82.92081523
-81.11233031
-79.1989981
-77.25825318
-75.24591787
-73.16420389
-71.05999321
-68.86686582
-66.65126786
-64.38526841
-62.05276918
-59.71088476
-57.29357675
-54.85494681
-52.38323293
-49.84642991
-47.31137913
-44.72078188
-42.11952398
-39.51450264
-36.86517026
-34.24202502
-31.58988413
-28.94177496
-26.31537161
-23.65559298
-21.03443735
-18.40258814
-15.78162936
-13.19250371
-10.592495
-8.036687148
-5.49279266
-2.968973467
-0.4901334067
1.981505384
4.399616294
6.782057418
9.129103583
11.41445629
13.66656123
15.85618477
17.99099651
20.07714728
22.09055866
24.05249994
25.94406548
27.76592859
29.52649211
31.20554638
32.8175773
34.35130019
35.80416572
37.18388215
38.47576216
39.6879666
40.81450992
41.85188091
42.80506601
43.66500468
44.43562129
45.11345967
45.69639117
46.18547819
46.57581054
46.86807333
47.06462695
47.17136436
47.19119346
47.12711027
46.97944847
46.74794114
46.43589631
46.03881241
45.56177149
45.00338765
44.36070574
43.64257836
42.83940235
41.9598178
41.00411198
39.96454009
38.85866345
37.67113711
36.41298308
35.08908491
33.6831584
32.22416074
30.69008581
29.09252688
27.44474032
25.71793522
23.95541535
22.12729307
20.24456668
18.32867812
16.34287192
14.33606242
12.27969944
10.17796881
8.063025765
5.889910375
3.710484646
1.501583464
-0.7430413164
-2.977887551
-5.255827337
-7.525702176
-9.800876447
-12.10268544
-14.36910367
-16.66098718
-18.93047156
-21.17703133
-23.44088237
-25.64240019
-27.84962891
-30.02054397
-32.13798292
-34.26112505
-36.29186737
-38.30572735
-40.27064651
-42.14759324
-44.0244131
-45.77942811
-47.49611208
-49.14962049
-50.6851356
-52.19163425
-53.56118459
-54.85546091
-56.0685333
-57.13377084
-58.13881334